# Force and moment coefficients
# dragDir     : (-1.000000e+00 0.000000e+00 0.000000e+00)
# sideDir     : (-0.000000e+00 -0.000000e+00 -1.000000e+00)
# liftDir     : (0.000000e+00 -1.000000e+00 0.000000e+00)
# rollAxis    : (-1.000000e+00 0.000000e+00 0.000000e+00)
# pitchAxis   : (-0.000000e+00 -0.000000e+00 -1.000000e+00)
# yawAxis     : (0.000000e+00 -1.000000e+00 0.000000e+00)
# magUInf     : 9.800000e+00
# lRef        : 1.000000e+00
# Aref        : 1.750000e+00
# CofR        : (0.000000e+00 0.000000e+00 0.000000e+00)
#
# Time        	Cd            	Cd(f)         	Cd(r)         	Cl            	Cl(f)         	Cl(r)         	CmPitch       	CmRoll        	CmYaw         	Cs            	Cs(f)         	Cs(r)         
1             	1.075383e+00	2.258105e+00	-1.182722e+00	-1.146942e+01	-1.195696e+01	4.875344e-01	-6.222246e+00	1.720413e+00	1.613074e-01	1.496079e-18	1.613074e-01	-1.613074e-01
2             	5.995544e-01	6.355488e-01	-3.599443e-02	-2.238478e+00	-2.177489e+00	-6.098865e-02	-1.058250e+00	3.357716e-01	8.993316e-02	1.581627e-18	8.993316e-02	-8.993316e-02
3             	4.413732e-01	3.678331e-02	4.045899e-01	1.226022e+00	1.384298e+00	-1.582762e-01	7.712871e-01	-1.839033e-01	6.620597e-02	1.616975e-18	6.620597e-02	-6.620597e-02
4             	3.138091e-01	-1.320122e-01	4.458213e-01	1.926112e+00	2.001090e+00	-7.497783e-02	1.038034e+00	-2.889168e-01	4.707137e-02	1.630370e-18	4.707137e-02	-4.707137e-02
5             	2.434077e-01	-7.896437e-02	3.223720e-01	1.337788e+00	1.385129e+00	-4.734114e-02	7.162352e-01	-2.006682e-01	3.651115e-02	1.634024e-18	3.651115e-02	-3.651115e-02
6             	1.851580e-01	-2.076930e-02	2.059273e-01	7.556555e-01	8.043377e-01	-4.868221e-02	4.265100e-01	-1.133483e-01	2.777371e-02	1.634811e-18	2.777371e-02	-2.777371e-02
7             	1.359805e-01	-1.961104e-03	1.379416e-01	4.663422e-01	5.288719e-01	-6.252968e-02	2.957008e-01	-6.995133e-02	2.039707e-02	1.636390e-18	2.039707e-02	-2.039707e-02
8             	1.341475e-01	2.034109e-03	1.321134e-01	4.335977e-01	4.974602e-01	-6.386255e-02	2.806614e-01	-6.503965e-02	2.012213e-02	1.636213e-18	2.012213e-02	-2.012213e-02
9             	1.342613e-01	3.267559e-03	1.309937e-01	4.257539e-01	4.887723e-01	-6.301839e-02	2.758953e-01	-6.386309e-02	2.013919e-02	1.636181e-18	2.013919e-02	-2.013919e-02
10            	1.353195e-01	3.268088e-03	1.320514e-01	4.292777e-01	4.906482e-01	-6.137049e-02	2.760093e-01	-6.439165e-02	2.029792e-02	1.636224e-18	2.029792e-02	-2.029792e-02
11            	1.122633e-01	-1.814047e-02	1.304038e-01	4.951476e-01	5.530059e-01	-5.785835e-02	3.054321e-01	-7.427213e-02	1.683950e-02	1.638130e-18	1.683950e-02	-1.683950e-02
12            	9.826957e-02	-2.579706e-02	1.240666e-01	4.995456e-01	5.530218e-01	-5.347618e-02	3.032490e-01	-7.493184e-02	1.474044e-02	1.639669e-18	1.474044e-02	-1.474044e-02
13            	8.672480e-02	-2.747886e-02	1.142037e-01	4.722750e-01	5.211210e-01	-4.884595e-02	2.849835e-01	-7.084125e-02	1.300872e-02	1.640730e-18	1.300872e-02	-1.300872e-02
14            	7.676023e-02	-2.807174e-02	1.048320e-01	4.430124e-01	4.873660e-01	-4.435367e-02	2.658598e-01	-6.645185e-02	1.151403e-02	1.641550e-18	1.151403e-02	-1.151403e-02
15            	6.952446e-02	-2.792547e-02	9.744993e-02	4.179180e-01	4.581438e-01	-4.022574e-02	2.491848e-01	-6.268770e-02	1.042867e-02	1.642284e-18	1.042867e-02	-1.042867e-02
16            	6.905895e-02	-2.728284e-02	9.634179e-02	4.120821e-01	4.517842e-01	-3.970209e-02	2.457431e-01	-6.181231e-02	1.035884e-02	1.642253e-18	1.035884e-02	-1.035884e-02
17            	6.335883e-02	-2.723848e-02	9.059731e-02	3.927860e-01	4.285504e-01	-3.576439e-02	2.321574e-01	-5.891790e-02	9.503824e-03	1.642844e-18	9.503824e-03	-9.503824e-03
18            	6.297099e-02	-2.661403e-02	8.958502e-02	3.873302e-01	4.225069e-01	-3.517674e-02	2.288418e-01	-5.809953e-02	9.445648e-03	1.642813e-18	9.445648e-03	-9.445648e-03
19            	5.781840e-02	-2.658035e-02	8.439875e-02	3.699304e-01	4.013991e-01	-3.146876e-02	2.164339e-01	-5.548955e-02	8.672760e-03	1.643336e-18	8.672760e-03	-8.672760e-03
20            	5.750238e-02	-2.603709e-02	8.353947e-02	3.652552e-01	3.962920e-01	-3.103676e-02	2.136644e-01	-5.478828e-02	8.625358e-03	1.643309e-18	8.625358e-03	-8.625358e-03
21            	5.296782e-02	-2.611745e-02	7.908528e-02	3.506758e-01	3.786077e-01	-2.793196e-02	2.032698e-01	-5.260136e-02	7.945174e-03	1.643781e-18	7.945174e-03	-7.945174e-03
