# Force coefficients
# liftDir     : (0.000000e+00 1.000000e+00 0.000000e+00)
# dragDir     : (1.000000e+00 0.000000e+00 0.000000e+00)
# pitchAxis   : (0.000000e+00 0.000000e+00 1.000000e+00)
# magUInf     : 3.200000e+00
# lRef        : 1.000000e+00
# Aref        : 1.750000e+00
# CofR        : (0.000000e+00 0.000000e+00 0.000000e+00)
# Time        	Cm            	Cd            	Cl            	Cl(f)         	Cl(r)         
0             	-3.960282e-05	4.454989e-03	4.736399e-06	-3.723462e-05	4.197102e-05
1             	3.055269e-01	1.026525e+00	-6.537465e-02	2.728396e-01	-3.382143e-01
2             	2.020144e-01	6.666386e-01	-2.883397e-02	1.875975e-01	-2.164314e-01
3             	3.427519e-02	-1.741539e-01	1.353644e-01	1.019574e-01	3.340699e-02
4             	-3.275172e-02	-5.782382e-01	2.434766e-01	8.898659e-02	1.544900e-01
5             	8.825804e-03	-3.318289e-01	1.948273e-01	1.062395e-01	8.858785e-02
6             	7.051073e-02	1.279222e-01	6.152413e-02	1.012728e-01	-3.974866e-02
7             	1.110816e-01	3.261387e-01	6.795080e-03	1.144791e-01	-1.076841e-01
8             	1.153886e-01	1.866183e-01	6.079976e-02	1.457885e-01	-8.498874e-02
9             	9.383927e-02	-5.361919e-02	1.453066e-01	1.664926e-01	-2.118595e-02
10            	6.675791e-02	-1.540908e-01	1.725953e-01	1.530556e-01	1.953974e-02
11            	5.057332e-02	-8.041403e-02	1.284172e-01	1.147819e-01	1.363525e-02
12            	5.926978e-02	4.440623e-02	7.909972e-02	9.881964e-02	-1.971992e-02
13            	8.400662e-02	9.591936e-02	7.853370e-02	1.232735e-01	-4.473977e-02
14            	1.010332e-01	5.653014e-02	1.164800e-01	1.592732e-01	-4.279317e-02
15            	9.550521e-02	-8.719115e-03	1.466869e-01	1.688487e-01	-2.216176e-02
16            	7.190821e-02	-3.585634e-02	1.347498e-01	1.392831e-01	-4.533327e-03
17            	5.398119e-02	-1.484983e-02	1.014480e-01	1.047052e-01	-3.257211e-03
18            	5.696805e-02	2.089893e-02	8.418981e-02	9.906295e-02	-1.487314e-02
19            	7.438548e-02	3.643128e-02	9.747181e-02	1.231214e-01	-2.564958e-02
20            	8.691989e-02	2.479536e-02	1.219237e-01	1.478818e-01	-2.595803e-02
21            	8.339714e-02	4.495414e-03	1.317056e-01	1.492500e-01	-1.754432e-02
22            	6.942057e-02	-4.420854e-03	1.198646e-01	1.293529e-01	-9.488258e-03
23            	5.960209e-02	2.302366e-03	1.027472e-01	1.109757e-01	-8.228480e-03
24            	6.131613e-02	1.414834e-02	9.742186e-02	1.100271e-01	-1.260520e-02
25            	6.989025e-02	1.939959e-02	1.065103e-01	1.231454e-01	-1.663512e-02
26            	7.519996e-02	1.535950e-02	1.177151e-01	1.340575e-01	-1.634241e-02
27            	7.290327e-02	8.240593e-03	1.205751e-01	1.331908e-01	-1.261573e-02
28            	6.677626e-02	5.217576e-03	1.147440e-01	1.241483e-01	-9.404263e-03
29            	6.325095e-02	7.819320e-03	1.083100e-01	1.174060e-01	-9.095937e-03
30            	6.443077e-02	1.210759e-02	1.073583e-01	1.181099e-01	-1.075164e-02
31            	6.733906e-02	1.371790e-02	1.112505e-01	1.229643e-01	-1.171380e-02
32            	6.776976e-02	1.186154e-02	1.142783e-01	1.249089e-01	-1.063061e-02
33            	6.504329e-02	9.130202e-03	1.132359e-01	1.216612e-01	-8.425358e-03
34            	6.185040e-02	8.167536e-03	1.098689e-01	1.167849e-01	-6.915941e-03
35            	6.083291e-02	9.294534e-03	1.078688e-01	1.147673e-01	-6.898489e-03
36            	6.203412e-02	1.086800e-02	1.087942e-01	1.164312e-01	-7.637017e-03
37            	6.339006e-02	1.127647e-02	1.110606e-01	1.189204e-01	-7.859747e-03
38            	6.317719e-02	1.040143e-02	1.122048e-01	1.192796e-01	-7.074798e-03
39            	6.157275e-02	9.317262e-03	1.114338e-01	1.172896e-01	-5.855861e-03
40            	6.029666e-02	8.999114e-03	1.103114e-01	1.154524e-01	-5.140962e-03
41            	6.061128e-02	9.503162e-03	1.106333e-01	1.159279e-01	-5.294633e-03
42            	6.251129e-02	1.013361e-02	1.131004e-01	1.190615e-01	-5.961085e-03
43            	6.481774e-02	1.029638e-02	1.166100e-01	1.231227e-01	-6.512736e-03
44            	6.652267e-02	1.000365e-02	1.197301e-01	1.263877e-01	-6.657599e-03
45            	6.758939e-02	9.656880e-03	1.220054e-01	1.285921e-01	-6.586705e-03
46            	6.856999e-02	9.631221e-03	1.238045e-01	1.304722e-01	-6.667742e-03
47            	6.999697e-02	9.888605e-03	1.259044e-01	1.329491e-01	-7.044792e-03
48            	7.209122e-02	1.019751e-02	1.290945e-01	1.366385e-01	-7.543950e-03
49            	7.400009e-02	1.028642e-02	1.322571e-01	1.401287e-01	-7.871532e-03
50            	7.518478e-02	1.017594e-02	1.345800e-01	1.424748e-01	-7.894803e-03
51            	7.571014e-02	1.004602e-02	1.359386e-01	1.436795e-01	-7.740822e-03
52            	7.602879e-02	1.003954e-02	1.368018e-01	1.444297e-01	-7.627883e-03
53            	7.659221e-02	1.014641e-02	1.378537e-01	1.455191e-01	-7.665346e-03
54            	7.753035e-02	1.025686e-02	1.394914e-01	1.472761e-01	-7.784632e-03
55            	7.859115e-02	1.028120e-02	1.415085e-01	1.493454e-01	-7.836889e-03
56            	7.940012e-02	1.023130e-02	1.433055e-01	1.510529e-01	-7.747374e-03
57            	7.986747e-02	1.018603e-02	1.445781e-01	1.521565e-01	-7.578418e-03
58            	8.017801e-02	1.020200e-02	1.454422e-01	1.528991e-01	-7.456917e-03
59            	8.060016e-02	1.026116e-02	1.463077e-01	1.537540e-01	-7.446292e-03
60            	8.122993e-02	1.031174e-02	1.474560e-01	1.549579e-01	-7.501913e-03
61            	8.194487e-02	1.031734e-02	1.488638e-01	1.563768e-01	-7.512963e-03
62            	8.252121e-02	1.028436e-02	1.502501e-01	1.576463e-01	-7.396139e-03
63            	8.276831e-02	1.025146e-02	1.511985e-01	1.583676e-01	-7.169056e-03
64            	8.283466e-02	1.023971e-02	1.518358e-01	1.587526e-01	-6.916763e-03
65            	8.288709e-02	1.024493e-02	1.523242e-01	1.590492e-01	-6.724994e-03
66            	8.304430e-02	1.024608e-02	1.528525e-01	1.594706e-01	-6.618032e-03
67            	8.338893e-02	1.023855e-02	1.536559e-01	1.602169e-01	-6.560972e-03
68            	8.372696e-02	1.021378e-02	1.545118e-01	1.609829e-01	-6.471046e-03
69            	8.398916e-02	1.019683e-02	1.553726e-01	1.616755e-01	-6.302846e-03
70            	8.411898e-02	1.019761e-02	1.561125e-01	1.621752e-01	-6.062731e-03
71            	8.412337e-02	1.020622e-02	1.566488e-01	1.624478e-01	-5.798982e-03
72            	8.407520e-02	1.020339e-02	1.570001e-01	1.625753e-01	-5.575146e-03
73            	8.408334e-02	1.018088e-02	1.573015e-01	1.627341e-01	-5.432596e-03
74            	8.415120e-02	1.013415e-02	1.576754e-01	1.629889e-01	-5.313496e-03
75            	8.433230e-02	1.008541e-02	1.583192e-01	1.634919e-01	-5.172699e-03
76            	8.445092e-02	1.006228e-02	1.588841e-01	1.638930e-01	-5.008877e-03
77            	8.456338e-02	1.006953e-02	1.595157e-01	1.643212e-01	-4.805547e-03
78            	8.464115e-02	1.009072e-02	1.601199e-01	1.647011e-01	-4.581189e-03
79            	8.468834e-02	1.009829e-02	1.606399e-01	1.650083e-01	-4.368370e-03
80            	8.473017e-02	1.007368e-02	1.610787e-01	1.652695e-01	-4.190826e-03
81            	8.478947e-02	1.002233e-02	1.614717e-01	1.655253e-01	-4.053644e-03
82            	8.487474e-02	9.967776e-03	1.618765e-01	1.658130e-01	-3.936490e-03
83            	8.495397e-02	9.938786e-03	1.622631e-01	1.660855e-01	-3.822403e-03
84            	8.508939e-02	9.936766e-03	1.629021e-01	1.665404e-01	-3.638332e-03
85            	8.516703e-02	9.959056e-03	1.634147e-01	1.668744e-01	-3.459681e-03
86            	8.525511e-02	9.980070e-03	1.639644e-01	1.672373e-01	-3.272908e-03
87            	8.536775e-02	9.978850e-03	1.645184e-01	1.676269e-01	-3.108574e-03
88            	8.550230e-02	9.949792e-03	1.650416e-01	1.680231e-01	-2.981518e-03
89            	8.564215e-02	9.904313e-03	1.655186e-01	1.684015e-01	-2.882831e-03
90            	8.576659e-02	9.862801e-03	1.659553e-01	1.687443e-01	-2.788919e-03
91            	8.586954e-02	9.841591e-03	1.663881e-01	1.690636e-01	-2.675474e-03
92            	8.596219e-02	9.842545e-03	1.668606e-01	1.693925e-01	-2.531885e-03
93            	8.606249e-02	9.854133e-03	1.673864e-01	1.697557e-01	-2.369308e-03
94            	8.618350e-02	9.860880e-03	1.679332e-01	1.701501e-01	-2.216901e-03
95            	8.630361e-02	9.853035e-03	1.683902e-01	1.704987e-01	-2.108519e-03
96            	8.645255e-02	9.830684e-03	1.688938e-01	1.708995e-01	-2.005626e-03
97            	8.667475e-02	9.804834e-03	1.695450e-01	1.714473e-01	-1.902256e-03
98            	8.680444e-02	9.785873e-03	1.699883e-01	1.717986e-01	-1.810290e-03
99            	8.690765e-02	9.779987e-03	1.703895e-01	1.721024e-01	-1.712899e-03
100           	8.699351e-02	9.782508e-03	1.707891e-01	1.723880e-01	-1.598972e-03
101           	8.706721e-02	9.783979e-03	1.711895e-01	1.726619e-01	-1.472478e-03
102           	8.715368e-02	9.776556e-03	1.716156e-01	1.729615e-01	-1.345880e-03
103           	8.724529e-02	9.766882e-03	1.719318e-01	1.732112e-01	-1.279395e-03
104           	8.743483e-02	9.736578e-03	1.725615e-01	1.737156e-01	-1.154094e-03
105           	8.755506e-02	9.712971e-03	1.729664e-01	1.740383e-01	-1.071861e-03
106           	8.770877e-02	9.698757e-03	1.734482e-01	1.744329e-01	-9.846573e-04
107           	8.788691e-02	9.699955e-03	1.739887e-01	1.748813e-01	-8.925719e-04
108           	8.805640e-02	9.712767e-03	1.745200e-01	1.753164e-01	-7.963887e-04
109           	8.819331e-02	9.724596e-03	1.749933e-01	1.756900e-01	-6.966587e-04
110           	8.828768e-02	9.721951e-03	1.753897e-01	1.759825e-01	-5.928154e-04
111           	8.834532e-02	9.700068e-03	1.757144e-01	1.762025e-01	-4.881392e-04
112           	8.838650e-02	9.666881e-03	1.759898e-01	1.763814e-01	-3.915929e-04
113           	8.843947e-02	9.636077e-03	1.762621e-01	1.765705e-01	-3.084078e-04
114           	8.853459e-02	9.619203e-03	1.765981e-01	1.768336e-01	-2.355471e-04
115           	8.868676e-02	9.622459e-03	1.770375e-01	1.772055e-01	-1.680136e-04
116           	8.887795e-02	9.641033e-03	1.775595e-01	1.776577e-01	-9.819243e-05
117           	8.906781e-02	9.660410e-03	1.780988e-01	1.781172e-01	-1.839629e-05
118           	8.921797e-02	9.665333e-03	1.785850e-01	1.785105e-01	7.455473e-05
119           	8.930560e-02	9.649087e-03	1.789630e-01	1.787871e-01	1.758763e-04
120           	8.933638e-02	9.618231e-03	1.792174e-01	1.789451e-01	2.723013e-04
121           	8.934424e-02	9.584201e-03	1.794007e-01	1.790446e-01	3.561258e-04
122           	8.936998e-02	9.557902e-03	1.795936e-01	1.791668e-01	4.267946e-04
123           	8.945212e-02	9.548905e-03	1.798782e-01	1.793912e-01	4.870012e-04
124           	8.970668e-02	9.570063e-03	1.805075e-01	1.799604e-01	5.470728e-04
125           	8.982912e-02	9.585995e-03	1.808633e-01	1.802608e-01	6.025138e-04
126           	8.993621e-02	9.597886e-03	1.812093e-01	1.805408e-01	6.684269e-04
127           	9.002128e-02	9.596214e-03	1.815395e-01	1.807910e-01	7.484776e-04
128           	9.008162e-02	9.578176e-03	1.818407e-01	1.810020e-01	8.387289e-04
129           	9.012639e-02	9.548395e-03	1.821136e-01	1.811832e-01	9.303995e-04
130           	9.017690e-02	9.518488e-03	1.823748e-01	1.813643e-01	1.010489e-03
131           	9.028601e-02	9.498300e-03	1.827379e-01	1.816550e-01	1.082962e-03
132           	9.036361e-02	9.501544e-03	1.829584e-01	1.818428e-01	1.115564e-03
133           	9.046794e-02	9.516722e-03	1.832324e-01	1.820841e-01	1.148248e-03
134           	9.059471e-02	9.533742e-03	1.835848e-01	1.823871e-01	1.197673e-03
135           	9.072080e-02	9.541255e-03	1.839823e-01	1.827119e-01	1.270336e-03
136           	9.081699e-02	9.533696e-03	1.843503e-01	1.829921e-01	1.358154e-03
137           	9.086813e-02	9.515721e-03	1.846173e-01	1.831768e-01	1.440534e-03
138           	9.089372e-02	9.495656e-03	1.847999e-01	1.832937e-01	1.506238e-03
139           	9.092098e-02	9.478820e-03	1.849583e-01	1.834001e-01	1.558193e-03
140           	9.096924e-02	9.468400e-03	1.851444e-01	1.835414e-01	1.602940e-03
141           	9.105266e-02	9.465205e-03	1.853999e-01	1.837526e-01	1.647300e-03
142           	9.118137e-02	9.467692e-03	1.857561e-01	1.840594e-01	1.696663e-03
143           	9.132328e-02	9.471355e-03	1.861470e-01	1.843968e-01	1.750201e-03
144           	9.143131e-02	9.471978e-03	1.864725e-01	1.846676e-01	1.804933e-03
145           	9.148961e-02	9.469981e-03	1.866882e-01	1.848337e-01	1.854503e-03
146           	9.153312e-02	9.460903e-03	1.868877e-01	1.849770e-01	1.910733e-03
147           	9.157170e-02	9.450104e-03	1.870930e-01	1.851182e-01	1.974794e-03
148           	9.161210e-02	9.443087e-03	1.873019e-01	1.852631e-01	2.038854e-03
149           	9.165947e-02	9.440129e-03	1.875045e-01	1.854117e-01	2.092789e-03
150           	9.171898e-02	9.438175e-03	1.877072e-01	1.855726e-01	2.134604e-03
151           	9.179678e-02	9.435322e-03	1.879318e-01	1.857627e-01	2.169133e-03
152           	9.189623e-02	9.430876e-03	1.881986e-01	1.859955e-01	2.203076e-03
153           	9.200261e-02	9.424804e-03	1.884879e-01	1.862465e-01	2.241315e-03
154           	9.205756e-02	9.419802e-03	1.886677e-01	1.863914e-01	2.276278e-03
155           	9.215068e-02	9.411395e-03	1.889725e-01	1.866370e-01	2.335581e-03
156           	9.219468e-02	9.406219e-03	1.891492e-01	1.867693e-01	2.379927e-03
157           	9.223702e-02	9.403285e-03	1.893289e-01	1.869015e-01	2.427449e-03
158           	9.228550e-02	9.401796e-03	1.895291e-01	1.870501e-01	2.479057e-03
159           	9.234297e-02	9.400761e-03	1.897473e-01	1.872166e-01	2.530656e-03
160           	9.240585e-02	9.399414e-03	1.899612e-01	1.873864e-01	2.574725e-03
161           	9.246606e-02	9.397001e-03	1.901468e-01	1.875394e-01	2.607329e-03
162           	9.252120e-02	9.393179e-03	1.903081e-01	1.876752e-01	2.632841e-03
163           	9.257543e-02	9.388239e-03	1.904671e-01	1.878090e-01	2.658137e-03
164           	9.261544e-02	9.384046e-03	1.905941e-01	1.879125e-01	2.681605e-03
165           	9.269802e-02	9.376137e-03	1.908507e-01	1.881234e-01	2.727338e-03
166           	9.275711e-02	9.372435e-03	1.910479e-01	1.882811e-01	2.766855e-03
167           	9.284484e-02	9.365480e-03	1.913351e-01	1.885124e-01	2.822734e-03
168           	9.288569e-02	9.365733e-03	1.914800e-01	1.886257e-01	2.854315e-03
169           	9.292405e-02	9.364782e-03	1.916164e-01	1.887323e-01	2.884170e-03
170           	9.296662e-02	9.362568e-03	1.917666e-01	1.888499e-01	2.916672e-03
171           	9.301427e-02	9.360660e-03	1.919336e-01	1.889811e-01	2.952536e-03
172           	9.306109e-02	9.359740e-03	1.920965e-01	1.891093e-01	2.987152e-03
173           	9.310610e-02	9.358682e-03	1.922492e-01	1.892307e-01	3.018505e-03
174           	9.315426e-02	9.356313e-03	1.924043e-01	1.893564e-01	3.047918e-03
175           	9.321202e-02	9.352116e-03	1.925788e-01	1.895014e-01	3.077384e-03
176           	9.327979e-02	9.346453e-03	1.927745e-01	1.896670e-01	3.107456e-03
177           	9.334192e-02	9.341254e-03	1.929548e-01	1.898193e-01	3.135451e-03
178           	9.338895e-02	9.337520e-03	1.930997e-01	1.899388e-01	3.160904e-03
179           	9.342603e-02	9.334484e-03	1.932259e-01	1.900390e-01	3.186930e-03
180           	9.345948e-02	9.331647e-03	1.933515e-01	1.901352e-01	3.216279e-03
181           	9.349415e-02	9.329224e-03	1.934880e-01	1.902382e-01	3.249858e-03
182           	9.353153e-02	9.327844e-03	1.936318e-01	1.903474e-01	3.284346e-03
183           	9.357017e-02	9.327520e-03	1.937695e-01	1.904549e-01	3.314567e-03
184           	9.360972e-02	9.327552e-03	1.938979e-01	1.905587e-01	3.339228e-03
185           	9.365166e-02	9.327207e-03	1.940234e-01	1.906634e-01	3.360047e-03
186           	9.369901e-02	9.325855e-03	1.941573e-01	1.907777e-01	3.379659e-03
187           	9.375472e-02	9.322845e-03	1.943111e-01	1.909103e-01	3.400833e-03
188           	9.381306e-02	9.318250e-03	1.944750e-01	1.910506e-01	3.424458e-03
189           	9.386003e-02	9.313515e-03	1.946165e-01	1.911683e-01	3.448227e-03
190           	9.389536e-02	9.309207e-03	1.947346e-01	1.912626e-01	3.471922e-03
191           	9.392569e-02	9.305338e-03	1.948457e-01	1.913486e-01	3.497189e-03
192           	9.395659e-02	9.302161e-03	1.949639e-01	1.914385e-01	3.525357e-03
193           	9.398989e-02	9.300487e-03	1.950897e-01	1.915348e-01	3.554970e-03
194           	9.402256e-02	9.300720e-03	1.952078e-01	1.916265e-01	3.581340e-03
195           	9.405212e-02	9.302039e-03	1.953091e-01	1.917067e-01	3.602428e-03
196           	9.407979e-02	9.303343e-03	1.953987e-01	1.917792e-01	3.619582e-03
197           	9.410955e-02	9.303763e-03	1.954889e-01	1.918540e-01	3.634881e-03
198           	9.414715e-02	9.302482e-03	1.955952e-01	1.919447e-01	3.650425e-03
199           	9.419695e-02	9.298605e-03	1.957304e-01	1.920622e-01	3.668261e-03
200           	9.423572e-02	9.294040e-03	1.958399e-01	1.921557e-01	3.684232e-03
201           	9.427522e-02	9.288802e-03	1.959563e-01	1.922534e-01	3.702933e-03
202           	9.431274e-02	9.284252e-03	1.960732e-01	1.923493e-01	3.723858e-03
203           	9.434907e-02	9.280715e-03	1.961923e-01	1.924452e-01	3.747086e-03
204           	9.438572e-02	9.278391e-03	1.963174e-01	1.925444e-01	3.772996e-03
205           	9.440186e-02	9.277963e-03	1.963753e-01	1.925895e-01	3.785801e-03
206           	9.444713e-02	9.279281e-03	1.965373e-01	1.927158e-01	3.821538e-03
207           	9.445887e-02	9.279226e-03	1.965832e-01	1.927505e-01	3.832723e-03
208           	9.449053e-02	9.280500e-03	1.966924e-01	1.928368e-01	3.855691e-03
209           	9.450019e-02	9.280873e-03	1.967276e-01	1.928640e-01	3.863608e-03
210           	9.454786e-02	9.278734e-03	1.968654e-01	1.929806e-01	3.884859e-03
211           	9.456189e-02	9.278809e-03	1.969082e-01	1.930160e-01	3.892224e-03
212           	9.461978e-02	9.272677e-03	1.970654e-01	1.931525e-01	3.912942e-03
213           	9.463494e-02	9.271723e-03	1.971107e-01	1.931903e-01	3.920396e-03
214           	9.467207e-02	9.267267e-03	1.972227e-01	1.932834e-01	3.939268e-03
215           	9.468806e-02	9.266276e-03	1.972746e-01	1.933253e-01	3.949220e-03
216           	9.473311e-02	9.264063e-03	1.974183e-01	1.934423e-01	3.976037e-03
217           	9.475029e-02	9.263212e-03	1.974760e-01	1.934883e-01	3.987700e-03
218           	9.478660e-02	9.262574e-03	1.975974e-01	1.935853e-01	4.012084e-03
219           	9.480003e-02	9.261652e-03	1.976437e-01	1.936219e-01	4.021797e-03
220           	9.482883e-02	9.260204e-03	1.977401e-01	1.936989e-01	4.041200e-03
221           	9.484225e-02	9.259695e-03	1.977859e-01	1.937352e-01	4.050690e-03
222           	9.488554e-02	9.255897e-03	1.979179e-01	1.938445e-01	4.073430e-03
223           	9.490114e-02	9.256042e-03	1.979674e-01	1.938848e-01	4.082546e-03
224           	9.493558e-02	9.253167e-03	1.980692e-01	1.939702e-01	4.099013e-03
225           	9.494859e-02	9.253207e-03	1.981085e-01	1.940029e-01	4.105686e-03
226           	9.497878e-02	9.251574e-03	1.981983e-01	1.940779e-01	4.120373e-03
227           	9.499296e-02	9.251008e-03	1.982421e-01	1.941140e-01	4.128098e-03
228           	9.502711e-02	9.250612e-03	1.983496e-01	1.942019e-01	4.147671e-03
229           	9.504018e-02	9.249935e-03	1.983940e-01	1.942372e-01	4.156843e-03
230           	9.506904e-02	9.249472e-03	1.984913e-01	1.943147e-01	4.176631e-03
231           	9.507613e-02	9.249020e-03	1.985192e-01	1.943357e-01	4.183458e-03
232           	9.510304e-02	9.246335e-03	1.986090e-01	1.944075e-01	4.201451e-03
233           	9.511155e-02	9.246042e-03	1.986396e-01	1.944313e-01	4.208243e-03
234           	9.514810e-02	9.240402e-03	1.987515e-01	1.945239e-01	4.227671e-03
235           	9.515962e-02	9.239741e-03	1.987879e-01	1.945536e-01	4.234313e-03
236           	9.519580e-02	9.236215e-03	1.988951e-01	1.946433e-01	4.251736e-03
237           	9.520726e-02	9.235569e-03	1.989300e-01	1.946723e-01	4.257760e-03
238           	9.524459e-02	9.235180e-03	1.990397e-01	1.947644e-01	4.275236e-03
239           	9.525545e-02	9.234793e-03	1.990736e-01	1.947922e-01	4.281327e-03
240           	9.528096e-02	9.235721e-03	1.991525e-01	1.948572e-01	4.295272e-03
241           	9.529665e-02	9.236400e-03	1.992057e-01	1.948995e-01	4.306175e-03
242           	9.531188e-02	9.236203e-03	1.992571e-01	1.949404e-01	4.316655e-03
243           	9.532893e-02	9.234697e-03	1.993136e-01	1.949857e-01	4.327841e-03
244           	9.533672e-02	9.234162e-03	1.993410e-01	1.950072e-01	4.333765e-03
245           	9.536157e-02	9.229209e-03	1.994216e-01	1.950724e-01	4.349227e-03
246           	9.536939e-02	9.228621e-03	1.994489e-01	1.950938e-01	4.355047e-03
247           	9.539167e-02	9.225844e-03	1.995231e-01	1.951532e-01	4.369882e-03
248           	9.539994e-02	9.225309e-03	1.995515e-01	1.951757e-01	4.375831e-03
249           	9.542766e-02	9.224866e-03	1.996427e-01	1.952490e-01	4.393689e-03
250           	9.543757e-02	9.224262e-03	1.996760e-01	1.952756e-01	4.400410e-03
251           	9.546037e-02	9.224616e-03	1.997497e-01	1.953352e-01	4.414470e-03
252           	9.546999e-02	9.224053e-03	1.997810e-01	1.953605e-01	4.420486e-03
253           	9.549540e-02	9.223249e-03	1.998546e-01	1.954227e-01	4.431903e-03
254           	9.550265e-02	9.223070e-03	1.998773e-01	1.954413e-01	4.436015e-03
255           	9.553241e-02	9.219612e-03	1.999594e-01	1.955121e-01	4.447318e-03
256           	9.554049e-02	9.219387e-03	1.999847e-01	1.955329e-01	4.451881e-03
257           	9.556631e-02	9.215380e-03	2.000626e-01	1.955976e-01	4.465005e-03
258           	9.557421e-02	9.214849e-03	2.000887e-01	1.956186e-01	4.470144e-03
259           	9.559650e-02	9.213291e-03	2.001625e-01	1.956778e-01	4.484750e-03
260           	9.560451e-02	9.212792e-03	2.001895e-01	1.956992e-01	4.490214e-03
261           	9.562238e-02	9.213252e-03	2.002524e-01	1.957486e-01	4.503798e-03
262           	9.563021e-02	9.213155e-03	2.002803e-01	1.957704e-01	4.509946e-03
263           	9.564475e-02	9.214629e-03	2.003358e-01	1.958126e-01	4.523131e-03
264           	9.564906e-02	9.214428e-03	2.003541e-01	1.958261e-01	4.527983e-03
265           	9.566102e-02	9.214000e-03	2.003998e-01	1.958609e-01	4.538881e-03
266           	9.566519e-02	9.214076e-03	2.004173e-01	1.958739e-01	4.543467e-03
267           	9.568619e-02	9.209831e-03	2.004833e-01	1.959278e-01	4.555459e-03
268           	9.569341e-02	9.209308e-03	2.005075e-01	1.959472e-01	4.560367e-03
269           	9.571781e-02	9.204911e-03	2.005772e-01	1.960064e-01	4.570788e-03
270           	9.573711e-02	9.201978e-03	2.006312e-01	1.960527e-01	4.578467e-03
271           	9.574503e-02	9.201616e-03	2.006535e-01	1.960718e-01	4.581728e-03
272           	9.576795e-02	9.202458e-03	2.007161e-01	1.961260e-01	4.590104e-03
273           	9.577518e-02	9.202134e-03	2.007375e-01	1.961439e-01	4.593563e-03
274           	9.578751e-02	9.202736e-03	2.007777e-01	1.961764e-01	4.601342e-03
275           	9.579300e-02	9.202145e-03	2.007970e-01	1.961915e-01	4.605525e-03
276           	9.580475e-02	9.201488e-03	2.008427e-01	1.962261e-01	4.616576e-03
277           	9.580884e-02	9.201598e-03	2.008602e-01	1.962390e-01	4.621268e-03
278           	9.582396e-02	9.199706e-03	2.009208e-01	1.962844e-01	4.636422e-03
279           	9.582959e-02	9.199558e-03	2.009438e-01	1.963015e-01	4.642294e-03
280           	9.584521e-02	9.196863e-03	2.010007e-01	1.963456e-01	4.655168e-03
281           	9.585180e-02	9.196343e-03	2.010247e-01	1.963641e-01	4.660554e-03
282           	9.586975e-02	9.194332e-03	2.010802e-01	1.964098e-01	4.670343e-03
283           	9.587679e-02	9.194120e-03	2.011025e-01	1.964281e-01	4.674474e-03
284           	9.589468e-02	9.193389e-03	2.011512e-01	1.964703e-01	4.680893e-03
285           	9.590122e-02	9.193572e-03	2.011708e-01	1.964866e-01	4.684195e-03
286           	9.590755e-02	9.193660e-03	2.011900e-01	1.965025e-01	4.687448e-03
287           	9.592218e-02	9.193033e-03	2.012317e-01	1.965380e-01	4.693646e-03
288           	9.592802e-02	9.193001e-03	2.012503e-01	1.965532e-01	4.697121e-03
289           	9.593366e-02	9.192811e-03	2.012697e-01	1.965685e-01	4.701166e-03
290           	9.594553e-02	9.191386e-03	2.013149e-01	1.966030e-01	4.711932e-03
291           	9.595090e-02	9.191000e-03	2.013357e-01	1.966187e-01	4.716950e-03
292           	9.595638e-02	9.190693e-03	2.013570e-01	1.966349e-01	4.722096e-03
293           	9.597042e-02	9.188886e-03	2.014113e-01	1.966761e-01	4.735209e-03
294           	9.597669e-02	9.188621e-03	2.014338e-01	1.966936e-01	4.740191e-03
295           	9.598320e-02	9.188393e-03	2.014563e-01	1.967114e-01	4.744973e-03
296           	9.599883e-02	9.189114e-03	2.015078e-01	1.967527e-01	4.755072e-03
297           	9.600551e-02	9.189406e-03	2.015282e-01	1.967696e-01	4.758572e-03
298           	9.601227e-02	9.189680e-03	2.015479e-01	1.967862e-01	4.761663e-03
299           	9.602800e-02	9.190351e-03	2.015914e-01	1.968237e-01	4.767680e-03
300           	9.603389e-02	9.190523e-03	2.016090e-01	1.968384e-01	4.770611e-03
301           	9.603929e-02	9.190392e-03	2.016263e-01	1.968525e-01	4.773882e-03
302           	9.604461e-02	9.189921e-03	2.016452e-01	1.968672e-01	4.777989e-03
303           	9.605009e-02	9.189133e-03	2.016662e-01	1.968832e-01	4.782988e-03
304           	9.605571e-02	9.188106e-03	2.016883e-01	1.968998e-01	4.788424e-03
305           	9.606157e-02	9.186870e-03	2.017109e-01	1.969170e-01	4.793892e-03
306           	9.606794e-02	9.185403e-03	2.017345e-01	1.969352e-01	4.799297e-03
307           	9.607507e-02	9.183747e-03	2.017595e-01	1.969548e-01	4.804693e-03
308           	9.608315e-02	9.182047e-03	2.017867e-01	1.969765e-01	4.810176e-03
309           	9.609226e-02	9.180513e-03	2.018161e-01	1.970003e-01	4.815772e-03
310           	9.610230e-02	9.179326e-03	2.018473e-01	1.970259e-01	4.821351e-03
311           	9.611287e-02	9.178566e-03	2.018791e-01	1.970524e-01	4.826677e-03
312           	9.612333e-02	9.178192e-03	2.019098e-01	1.970782e-01	4.831586e-03
313           	9.613287e-02	9.178091e-03	2.019379e-01	1.971018e-01	4.836098e-03
314           	9.614060e-02	9.177960e-03	2.019621e-01	1.971217e-01	4.840455e-03
315           	9.614882e-02	9.178387e-03	2.019848e-01	1.971412e-01	4.843599e-03
316           	9.615256e-02	9.178844e-03	2.019984e-01	1.971518e-01	4.846649e-03
317           	9.615568e-02	9.179725e-03	2.020091e-01	1.971602e-01	4.848864e-03
318           	9.615539e-02	9.180204e-03	2.020147e-01	1.971627e-01	4.851949e-03
319           	9.615550e-02	9.180907e-03	2.020196e-01	1.971653e-01	4.854285e-03
320           	9.615514e-02	9.180937e-03	2.020246e-01	1.971675e-01	4.857187e-03
321           	9.615567e-02	9.180813e-03	2.020307e-01	1.971710e-01	4.859652e-03
322           	9.615795e-02	9.180202e-03	2.020397e-01	1.971778e-01	4.861878e-03
323           	9.616121e-02	9.179424e-03	2.020497e-01	1.971861e-01	4.863631e-03
324           	9.616121e-02	9.179426e-03	2.020497e-01	1.971861e-01	4.863637e-03
325           	9.616639e-02	9.178402e-03	2.020619e-01	1.971973e-01	4.864563e-03
326           	9.617184e-02	9.177405e-03	2.020742e-01	1.972089e-01	4.865242e-03
327           	9.617184e-02	9.177414e-03	2.020742e-01	1.972089e-01	4.865246e-03
328           	9.617793e-02	9.176450e-03	2.020872e-01	1.972215e-01	4.865673e-03
329           	9.617793e-02	9.176459e-03	2.020872e-01	1.972215e-01	4.865677e-03
330           	9.618425e-02	9.175448e-03	2.021008e-01	1.972347e-01	4.866166e-03
331           	9.618425e-02	9.175457e-03	2.021008e-01	1.972347e-01	4.866169e-03
332           	9.618425e-02	9.175467e-03	2.021008e-01	1.972347e-01	4.866173e-03
333           	9.618969e-02	9.174356e-03	2.021144e-01	1.972469e-01	4.867493e-03
334           	9.618968e-02	9.174362e-03	2.021144e-01	1.972469e-01	4.867497e-03
335           	9.618968e-02	9.174366e-03	2.021144e-01	1.972469e-01	4.867501e-03
336           	9.619232e-02	9.173194e-03	2.021259e-01	1.972553e-01	4.870655e-03
337           	9.619232e-02	9.173198e-03	2.021260e-01	1.972553e-01	4.870658e-03
338           	9.619232e-02	9.173199e-03	2.021260e-01	1.972553e-01	4.870662e-03
339           	9.619231e-02	9.173198e-03	2.021260e-01	1.972553e-01	4.870666e-03
340           	9.619120e-02	9.172547e-03	2.021363e-01	1.972594e-01	4.876971e-03
341           	9.619120e-02	9.172555e-03	2.021363e-01	1.972594e-01	4.876972e-03
342           	9.619120e-02	9.172555e-03	2.021363e-01	1.972594e-01	4.876974e-03
343           	9.619008e-02	9.171388e-03	2.021477e-01	1.972639e-01	4.883767e-03
344           	9.619008e-02	9.171393e-03	2.021477e-01	1.972639e-01	4.883767e-03
345           	9.619008e-02	9.171404e-03	2.021477e-01	1.972639e-01	4.883767e-03
346           	9.619008e-02	9.171398e-03	2.021477e-01	1.972639e-01	4.883769e-03
347           	9.618904e-02	9.170752e-03	2.021604e-01	1.972692e-01	4.891145e-03
348           	9.618904e-02	9.170766e-03	2.021604e-01	1.972692e-01	4.891144e-03
349           	9.619038e-02	9.169964e-03	2.021771e-01	1.972789e-01	4.898178e-03
350           	9.619038e-02	9.169986e-03	2.021771e-01	1.972789e-01	4.898176e-03
351           	9.619037e-02	9.169975e-03	2.021771e-01	1.972789e-01	4.898177e-03
352           	9.619426e-02	9.169548e-03	2.021975e-01	1.972930e-01	4.904472e-03
353           	9.619914e-02	9.169446e-03	2.022195e-01	1.973089e-01	4.910627e-03
354           	9.619913e-02	9.169418e-03	2.022195e-01	1.973089e-01	4.910631e-03
355           	9.621005e-02	9.169478e-03	2.022453e-01	1.973327e-01	4.912607e-03
356           	9.622098e-02	9.169399e-03	2.022727e-01	1.973573e-01	4.915364e-03
357           	9.622098e-02	9.169405e-03	2.022727e-01	1.973573e-01	4.915365e-03
358           	9.623287e-02	9.169845e-03	2.023000e-01	1.973829e-01	4.917143e-03
359           	9.624336e-02	9.170323e-03	2.023241e-01	1.974054e-01	4.918695e-03
360           	9.624335e-02	9.170331e-03	2.023241e-01	1.974054e-01	4.918695e-03
361           	9.625449e-02	9.169709e-03	2.023469e-01	1.974279e-01	4.918960e-03
362           	9.626373e-02	9.169577e-03	2.023637e-01	1.974456e-01	4.918132e-03
363           	9.626373e-02	9.169584e-03	2.023637e-01	1.974456e-01	4.918132e-03
364           	9.626373e-02	9.169577e-03	2.023637e-01	1.974456e-01	4.918138e-03
365           	9.626402e-02	9.170191e-03	2.023697e-01	1.974489e-01	4.920836e-03
366           	9.626401e-02	9.170208e-03	2.023697e-01	1.974489e-01	4.920838e-03
367           	9.626666e-02	9.170461e-03	2.023771e-01	1.974552e-01	4.921883e-03