/*--------------------------------*- C++ -*----------------------------------*\
  =========                 |
  \\      /  F ield         | OpenFOAM: The Open Source CFD Toolbox
   \\    /   O peration     | Website:  https://openfoam.org
    \\  /    A nd           | Version:  11
     \\/     M anipulation  |
\*---------------------------------------------------------------------------*/
FoamFile
{
    format      ascii;
    class       volScalarField;
    location    "50";
    object      nut;
}
// * * * * * * * * * * * * * * * * * * * * * * * * * * * * * * * * * * * * * //

dimensions      [0 2 -1 0 0 0 0];

internalField   nonuniform List<scalar> 
31595
(
0.140017
0.140047
0.14005
0.140052
0.140049
0.140043
0.140037
0.140029
0.140022
0.140015
0.140011
0.14001
0.140011
0.140013
0.140015
0.140016
0.140018
0.14002
0.140022
0.140025
0.140028
0.140031
0.140034
0.140038
0.140041
0.140044
0.140047
0.140051
0.140054
0.140058
0.140063
0.140067
0.140072
0.140077
0.140082
0.140088
0.140093
0.140099
0.140105
0.140111
0.140117
0.140123
0.140129
0.140136
0.140142
0.140149
0.140156
0.140163
0.14017
0.140177
0.140185
0.140193
0.140201
0.14021
0.140219
0.140228
0.140238
0.140249
0.140261
0.140274
0.140288
0.140303
0.140319
0.140336
0.140355
0.140375
0.140397
0.140421
0.140446
0.140472
0.140501
0.140532
0.140564
0.140599
0.140636
0.140676
0.140719
0.140765
0.140815
0.14087
0.140929
0.140995
0.141068
0.141148
0.141251
0.141277
0.141809
0.137888
0.193896
0.140016
0.140036
0.140045
0.140044
0.140041
0.140036
0.140031
0.140025
0.140019
0.140014
0.140012
0.140012
0.140014
0.140017
0.14002
0.140021
0.140022
0.140023
0.140024
0.140026
0.140028
0.14003
0.140033
0.140036
0.140039
0.140042
0.140046
0.140049
0.140053
0.140056
0.14006
0.140065
0.140069
0.140074
0.140079
0.140084
0.140089
0.140094
0.1401
0.140106
0.140111
0.140117
0.140123
0.14013
0.140136
0.140143
0.140149
0.140157
0.140164
0.140171
0.140179
0.140186
0.140195
0.140203
0.140212
0.140221
0.140231
0.140241
0.140253
0.140265
0.140278
0.140292
0.140307
0.140323
0.140341
0.14036
0.140381
0.140403
0.140427
0.140452
0.14048
0.140509
0.140541
0.140574
0.140611
0.14065
0.140692
0.140737
0.140786
0.14084
0.140898
0.140963
0.141034
0.141111
0.14121
0.141238
0.141742
0.137989
0.18754
0.140014
0.140033
0.140038
0.140037
0.140033
0.140029
0.140024
0.14002
0.140015
0.140012
0.14001
0.140012
0.140015
0.140019
0.140023
0.140026
0.140027
0.140027
0.140028
0.140029
0.14003
0.140032
0.140034
0.140037
0.14004
0.140043
0.140046
0.140049
0.140052
0.140056
0.14006
0.140064
0.140068
0.140072
0.140077
0.140082
0.140087
0.140092
0.140098
0.140103
0.140109
0.140115
0.140121
0.140127
0.140134
0.14014
0.140147
0.140154
0.140161
0.140168
0.140176
0.140184
0.140192
0.1402
0.140208
0.140217
0.140227
0.140237
0.140247
0.140259
0.140271
0.140284
0.140298
0.140313
0.14033
0.140348
0.140367
0.140388
0.14041
0.140434
0.14046
0.140488
0.140518
0.14055
0.140584
0.140621
0.140661
0.140704
0.140751
0.140802
0.140857
0.140918
0.140985
0.141058
0.141149
0.141173
0.141668
0.138011
0.18201
0.140011
0.140026
0.140031
0.14003
0.140027
0.140023
0.140018
0.140014
0.140011
0.140008
0.140008
0.140011
0.140016
0.140021
0.140025
0.140028
0.14003
0.140031
0.140031
0.140032
0.140032
0.140034
0.140035
0.140037
0.14004
0.140043
0.140045
0.140048
0.140052
0.140055
0.140059
0.140062
0.140066
0.140071
0.140075
0.14008
0.140085
0.14009
0.140095
0.1401
0.140106
0.140112
0.140118
0.140124
0.14013
0.140137
0.140143
0.14015
0.140157
0.140164
0.140172
0.140179
0.140187
0.140195
0.140203
0.140212
0.140221
0.140231
0.140241
0.140252
0.140263
0.140276
0.140289
0.140303
0.140319
0.140335
0.140353
0.140373
0.140394
0.140417
0.140441
0.140468
0.140496
0.140527
0.14056
0.140595
0.140634
0.140675
0.14072
0.140769
0.140822
0.140881
0.140945
0.141014
0.141101
0.141118
0.141612
0.13806
0.176684
0.140008
0.140021
0.140026
0.140025
0.140021
0.140017
0.140013
0.140009
0.140006
0.140005
0.140007
0.140011
0.140016
0.140022
0.140026
0.14003
0.140033
0.140035
0.140035
0.140035
0.140035
0.140036
0.140037
0.140039
0.140041
0.140043
0.140046
0.140048
0.140051
0.140055
0.140058
0.140062
0.140065
0.140069
0.140074
0.140078
0.140083
0.140088
0.140093
0.140098
0.140103
0.140109
0.140115
0.140121
0.140127
0.140133
0.14014
0.140146
0.140153
0.14016
0.140168
0.140175
0.140183
0.140191
0.140199
0.140208
0.140216
0.140226
0.140236
0.140246
0.140257
0.140269
0.140281
0.140295
0.140309
0.140325
0.140342
0.14036
0.14038
0.140401
0.140424
0.140449
0.140476
0.140505
0.140536
0.14057
0.140607
0.140646
0.140689
0.140736
0.140787
0.140843
0.140904
0.14097
0.141051
0.141061
0.14155
0.138092
0.171823
0.140006
0.140017
0.14002
0.14002
0.140017
0.140013
0.140009
0.140006
0.140004
0.140004
0.140007
0.140012
0.140017
0.140023
0.140028
0.140032
0.140035
0.140037
0.140038
0.140039
0.140039
0.140039
0.14004
0.140041
0.140042
0.140044
0.140046
0.140049
0.140052
0.140054
0.140058
0.140061
0.140064
0.140068
0.140072
0.140076
0.140081
0.140086
0.14009
0.140095
0.140101
0.140106
0.140112
0.140118
0.140124
0.14013
0.140136
0.140143
0.140149
0.140156
0.140164
0.140171
0.140179
0.140187
0.140195
0.140203
0.140212
0.140221
0.14023
0.14024
0.140251
0.140262
0.140274
0.140287
0.1403
0.140315
0.140331
0.140348
0.140367
0.140387
0.140409
0.140432
0.140457
0.140485
0.140515
0.140547
0.140581
0.140619
0.14066
0.140704
0.140753
0.140805
0.140863
0.140924
0.141
0.141003
0.14147
0.138161
0.16732
0.140005
0.140013
0.140016
0.140015
0.140013
0.140009
0.140006
0.140004
0.140004
0.140006
0.14001
0.140014
0.140019
0.140025
0.140029
0.140033
0.140037
0.140039
0.140041
0.140042
0.140042
0.140042
0.140043
0.140043
0.140044
0.140046
0.140048
0.14005
0.140052
0.140055
0.140057
0.140061
0.140064
0.140067
0.140071
0.140075
0.140079
0.140084
0.140088
0.140093
0.140098
0.140104
0.140109
0.140115
0.140121
0.140127
0.140133
0.140139
0.140146
0.140153
0.14016
0.140167
0.140175
0.140182
0.14019
0.140199
0.140207
0.140216
0.140225
0.140235
0.140245
0.140256
0.140267
0.140279
0.140292
0.140306
0.140321
0.140338
0.140355
0.140374
0.140394
0.140416
0.14044
0.140466
0.140494
0.140525
0.140557
0.140593
0.140632
0.140674
0.14072
0.140769
0.140824
0.140881
0.140951
0.140951
0.141383
0.138231
0.163049
0.140003
0.140009
0.140012
0.140011
0.140009
0.140006
0.140005
0.140005
0.140007
0.14001
0.140014
0.140018
0.140022
0.140027
0.140031
0.140035
0.140039
0.140041
0.140044
0.140045
0.140045
0.140046
0.140046
0.140046
0.140047
0.140048
0.140049
0.140051
0.140053
0.140055
0.140058
0.14006
0.140064
0.140067
0.14007
0.140074
0.140078
0.140082
0.140087
0.140091
0.140096
0.140101
0.140106
0.140112
0.140118
0.140123
0.14013
0.140136
0.140142
0.140149
0.140156
0.140163
0.14017
0.140178
0.140186
0.140194
0.140202
0.140211
0.14022
0.14023
0.14024
0.14025
0.140261
0.140273
0.140285
0.140298
0.140313
0.140328
0.140344
0.140362
0.140381
0.140402
0.140425
0.140449
0.140475
0.140504
0.140535
0.140569
0.140605
0.140645
0.140688
0.140736
0.140786
0.14084
0.140905
0.140907
0.141292
0.13827
0.159043
0.140002
0.140006
0.140008
0.140007
0.140006
0.140005
0.140006
0.140008
0.140011
0.140015
0.140018
0.140022
0.140026
0.140029
0.140033
0.140037
0.14004
0.140043
0.140046
0.140047
0.140048
0.140049
0.140049
0.140049
0.140049
0.14005
0.140051
0.140052
0.140054
0.140056
0.140058
0.140061
0.140064
0.140067
0.14007
0.140073
0.140077
0.140081
0.140085
0.14009
0.140094
0.140099
0.140104
0.140109
0.140115
0.140121
0.140126
0.140132
0.140139
0.140145
0.140152
0.140159
0.140166
0.140174
0.140182
0.140189
0.140198
0.140206
0.140215
0.140224
0.140234
0.140244
0.140255
0.140266
0.140278
0.140291
0.140304
0.140319
0.140334
0.140351
0.140369
0.140389
0.14041
0.140433
0.140458
0.140485
0.140514
0.140546
0.140581
0.140618
0.140659
0.140703
0.140751
0.140802
0.140859
0.14087
0.141192
0.138223
0.155435
0.140001
0.140004
0.140005
0.140004
0.140004
0.140005
0.140008
0.140012
0.140016
0.140019
0.140023
0.140026
0.140029
0.140032
0.140036
0.140039
0.140042
0.140045
0.140048
0.140049
0.140051
0.140052
0.140052
0.140052
0.140052
0.140053
0.140053
0.140054
0.140056
0.140057
0.140059
0.140061
0.140064
0.140067
0.14007
0.140073
0.140076
0.14008
0.140084
0.140088
0.140092
0.140097
0.140102
0.140107
0.140112
0.140118
0.140123
0.140129
0.140135
0.140142
0.140148
0.140155
0.140162
0.14017
0.140177
0.140185
0.140193
0.140201
0.14021
0.140219
0.140229
0.140239
0.140249
0.14026
0.140271
0.140283
0.140296
0.14031
0.140325
0.140341
0.140358
0.140377
0.140396
0.140418
0.140441
0.140467
0.140494
0.140524
0.140556
0.140591
0.140629
0.14067
0.140714
0.140761
0.140808
0.140829
0.141042
0.138141
0.152101
0.14
0.140002
0.140003
0.140003
0.140003
0.140006
0.140011
0.140015
0.14002
0.140023
0.140026
0.140029
0.140032
0.140035
0.140038
0.140041
0.140044
0.140047
0.140049
0.140052
0.140053
0.140054
0.140055
0.140055
0.140055
0.140055
0.140056
0.140057
0.140058
0.140059
0.14006
0.140062
0.140064
0.140067
0.14007
0.140072
0.140076
0.140079
0.140083
0.140087
0.140091
0.140095
0.1401
0.140105
0.14011
0.140115
0.140121
0.140126
0.140132
0.140138
0.140145
0.140151
0.140158
0.140165
0.140173
0.14018
0.140188
0.140197
0.140205
0.140214
0.140223
0.140233
0.140243
0.140253
0.140265
0.140276
0.140289
0.140302
0.140316
0.140331
0.140347
0.140365
0.140384
0.140404
0.140426
0.14045
0.140475
0.140503
0.140534
0.140566
0.140602
0.14064
0.14068
0.140723
0.14076
0.140797
0.140837
0.138399
0.148576
0.14
0.140001
0.140002
0.140003
0.140005
0.140009
0.140013
0.140018
0.140023
0.140026
0.14003
0.140033
0.140036
0.140038
0.140041
0.140044
0.140047
0.140049
0.140052
0.140054
0.140055
0.140057
0.140057
0.140058
0.140058
0.140058
0.140058
0.140059
0.14006
0.140061
0.140062
0.140064
0.140065
0.140067
0.14007
0.140073
0.140075
0.140079
0.140082
0.140086
0.14009
0.140094
0.140098
0.140103
0.140107
0.140113
0.140118
0.140123
0.140129
0.140135
0.140141
0.140148
0.140154
0.140161
0.140169
0.140176
0.140184
0.140192
0.1402
0.140209
0.140218
0.140227
0.140237
0.140247
0.140258
0.140269
0.140281
0.140294
0.140308
0.140322
0.140337
0.140354
0.140372
0.140391
0.140412
0.140434
0.140458
0.140484
0.140513
0.140543
0.140577
0.140612
0.14065
0.14069
0.140719
0.140777
0.140619
0.138966
0.144318
0.140001
0.140002
0.140003
0.140005
0.140008
0.140012
0.140016
0.140021
0.140025
0.140029
0.140033
0.140036
0.140039
0.140042
0.140044
0.140047
0.140049
0.140052
0.140054
0.140056
0.140058
0.140059
0.14006
0.14006
0.14006
0.140061
0.140061
0.140061
0.140062
0.140063
0.140064
0.140065
0.140067
0.140068
0.14007
0.140073
0.140075
0.140078
0.140081
0.140085
0.140088
0.140092
0.140096
0.140101
0.140105
0.14011
0.140115
0.140121
0.140126
0.140132
0.140138
0.140144
0.140151
0.140157
0.140164
0.140172
0.140179
0.140187
0.140195
0.140204
0.140212
0.140222
0.140231
0.140241
0.140252
0.140263
0.140274
0.140286
0.140299
0.140313
0.140328
0.140344
0.140361
0.140379
0.140398
0.140419
0.140442
0.140467
0.140493
0.140522
0.140553
0.140587
0.140622
0.14066
0.140683
0.140764
0.140508
0.139781
0.139196
0.140001
0.140004
0.140006
0.140008
0.140011
0.140014
0.140019
0.140023
0.140028
0.140032
0.140036
0.140039
0.140042
0.140045
0.140047
0.14005
0.140052
0.140054
0.140056
0.140058
0.14006
0.140061
0.140062
0.140063
0.140063
0.140063
0.140064
0.140064
0.140064
0.140065
0.140066
0.140067
0.140068
0.14007
0.140071
0.140073
0.140076
0.140078
0.140081
0.140084
0.140088
0.140091
0.140095
0.140099
0.140103
0.140108
0.140113
0.140118
0.140123
0.140129
0.140134
0.140141
0.140147
0.140153
0.14016
0.140167
0.140174
0.140182
0.14019
0.140198
0.140207
0.140216
0.140225
0.140235
0.140245
0.140256
0.140267
0.140278
0.140291
0.140304
0.140318
0.140333
0.140349
0.140366
0.140384
0.140404
0.140425
0.140448
0.140472
0.140498
0.140526
0.140555
0.140585
0.140616
0.140626
0.140682
0.140115
0.140803
0.132824
0.140002
0.140005
0.140008
0.14001
0.140014
0.140017
0.140021
0.140026
0.14003
0.140035
0.140039
0.140042
0.140045
0.140048
0.14005
0.140053
0.140055
0.140057
0.140059
0.140061
0.140062
0.140064
0.140065
0.140065
0.140066
0.140066
0.140066
0.140066
0.140067
0.140067
0.140068
0.140069
0.14007
0.140071
0.140072
0.140074
0.140076
0.140079
0.140081
0.140084
0.140087
0.14009
0.140094
0.140098
0.140102
0.140106
0.140111
0.140115
0.140121
0.140126
0.140131
0.140137
0.140143
0.140149
0.140156
0.140163
0.14017
0.140177
0.140185
0.140193
0.140201
0.14021
0.140219
0.140229
0.140238
0.140249
0.14026
0.140271
0.140283
0.140296
0.140309
0.140323
0.140338
0.140355
0.140372
0.140391
0.140411
0.140432
0.140455
0.140479
0.140506
0.140533
0.140561
0.140589
0.140599
0.140599
0.140115
0.140878
0.124171
0.140002
0.140006
0.140009
0.140013
0.140016
0.14002
0.140024
0.140028
0.140033
0.140037
0.140041
0.140045
0.140048
0.140051
0.140053
0.140056
0.140058
0.14006
0.140062
0.140063
0.140065
0.140066
0.140067
0.140068
0.140068
0.140068
0.140069
0.140069
0.140069
0.140069
0.14007
0.140071
0.140071
0.140073
0.140074
0.140075
0.140077
0.140079
0.140081
0.140084
0.140087
0.14009
0.140093
0.140097
0.1401
0.140104
0.140109
0.140113
0.140118
0.140123
0.140128
0.140134
0.14014
0.140146
0.140152
0.140159
0.140165
0.140173
0.14018
0.140188
0.140196
0.140204
0.140213
0.140222
0.140232
0.140242
0.140252
0.140263
0.140275
0.140287
0.1403
0.140314
0.140328
0.140344
0.14036
0.140378
0.140396
0.140417
0.140438
0.140461
0.140486
0.140511
0.140537
0.140563
0.140577
0.140602
0.140176
0.139633
0.132416
0.140002
0.140007
0.140011
0.140015
0.140018
0.140022
0.140026
0.140031
0.140035
0.140039
0.140044
0.140047
0.140051
0.140054
0.140056
0.140059
0.140061
0.140063
0.140065
0.140066
0.140068
0.140069
0.14007
0.140071
0.140071
0.140071
0.140071
0.140071
0.140071
0.140072
0.140072
0.140073
0.140073
0.140074
0.140075
0.140077
0.140078
0.14008
0.140082
0.140084
0.140087
0.140089
0.140092
0.140096
0.140099
0.140103
0.140107
0.140111
0.140116
0.14012
0.140125
0.140131
0.140136
0.140142
0.140148
0.140154
0.140161
0.140168
0.140175
0.140183
0.14019
0.140199
0.140207
0.140216
0.140225
0.140235
0.140245
0.140256
0.140267
0.140278
0.140291
0.140304
0.140317
0.140332
0.140347
0.140364
0.140381
0.1404
0.140419
0.14044
0.140462
0.140484
0.140505
0.140526
0.140526
0.140438
0.13992
0.140038
0.138913
0.140003
0.140007
0.140012
0.140016
0.140021
0.140025
0.140029
0.140033
0.140037
0.140042
0.140046
0.14005
0.140053
0.140056
0.140059
0.140062
0.140064
0.140066
0.140067
0.140069
0.14007
0.140071
0.140072
0.140073
0.140074
0.140074
0.140074
0.140074
0.140074
0.140074
0.140074
0.140075
0.140075
0.140076
0.140077
0.140078
0.140079
0.140081
0.140082
0.140084
0.140087
0.140089
0.140092
0.140095
0.140098
0.140101
0.140105
0.140109
0.140113
0.140118
0.140123
0.140128
0.140133
0.140138
0.140144
0.14015
0.140157
0.140163
0.14017
0.140177
0.140185
0.140193
0.140201
0.14021
0.140218
0.140228
0.140238
0.140248
0.140258
0.14027
0.140281
0.140294
0.140307
0.14032
0.140335
0.14035
0.140367
0.140384
0.140402
0.14042
0.14044
0.140459
0.140475
0.140492
0.140432
0.140313
0.139951
0.139395
0.142945
0.140003
0.140008
0.140013
0.140018
0.140023
0.140027
0.140031
0.140035
0.14004
0.140044
0.140048
0.140052
0.140056
0.140059
0.140062
0.140064
0.140067
0.140069
0.14007
0.140072
0.140073
0.140074
0.140075
0.140076
0.140076
0.140077
0.140077
0.140077
0.140076
0.140076
0.140077
0.140077
0.140077
0.140078
0.140079
0.140079
0.14008
0.140082
0.140083
0.140085
0.140087
0.140089
0.140092
0.140094
0.140097
0.1401
0.140104
0.140107
0.140111
0.140116
0.14012
0.140125
0.14013
0.140135
0.14014
0.140146
0.140152
0.140159
0.140165
0.140172
0.14018
0.140187
0.140195
0.140203
0.140212
0.140221
0.14023
0.14024
0.140251
0.140261
0.140273
0.140285
0.140297
0.14031
0.140324
0.140339
0.140354
0.14037
0.140388
0.140406
0.140424
0.140443
0.140463
0.140481
0.140498
0.14046
0.140104
0.138669
0.146031
0.140003
0.140009
0.140014
0.14002
0.140024
0.140029
0.140033
0.140038
0.140042
0.140047
0.140051
0.140055
0.140058
0.140061
0.140064
0.140067
0.140069
0.140071
0.140073
0.140075
0.140076
0.140077
0.140078
0.140079
0.140079
0.140079
0.14008
0.140079
0.140079
0.140079
0.140079
0.140079
0.140079
0.14008
0.14008
0.140081
0.140082
0.140083
0.140084
0.140086
0.140087
0.140089
0.140091
0.140094
0.140096
0.140099
0.140102
0.140106
0.140109
0.140113
0.140117
0.140122
0.140127
0.140132
0.140137
0.140142
0.140148
0.140154
0.140161
0.140167
0.140174
0.140181
0.140189
0.140197
0.140205
0.140214
0.140223
0.140232
0.140242
0.140252
0.140263
0.140274
0.140286
0.140299
0.140311
0.140325
0.140339
0.140354
0.140369
0.140385
0.140402
0.140419
0.140439
0.140466
0.140512
0.140565
0.14055
0.138794
0.149198
0.140003
0.140009
0.140015
0.140021
0.140026
0.140031
0.140036
0.14004
0.140045
0.140049
0.140053
0.140057
0.140061
0.140064
0.140067
0.14007
0.140072
0.140074
0.140076
0.140077
0.140079
0.14008
0.140081
0.140081
0.140082
0.140082
0.140082
0.140082
0.140082
0.140081
0.140081
0.140081
0.140081
0.140082
0.140082
0.140083
0.140083
0.140084
0.140085
0.140086
0.140088
0.140089
0.140091
0.140093
0.140096
0.140098
0.140101
0.140104
0.140108
0.140111
0.140115
0.140119
0.140124
0.140128
0.140133
0.140138
0.140144
0.14015
0.140156
0.140162
0.140169
0.140176
0.140183
0.14019
0.140198
0.140207
0.140215
0.140224
0.140233
0.140243
0.140253
0.140264
0.140275
0.140286
0.140298
0.14031
0.140323
0.140336
0.140349
0.140362
0.140375
0.140387
0.140403
0.14038
0.140356
0.140349
0.140544
0.138497
0.152311
0.140003
0.14001
0.140016
0.140022
0.140028
0.140033
0.140038
0.140042
0.140047
0.140051
0.140055
0.140059
0.140063
0.140066
0.140069
0.140072
0.140074
0.140077
0.140078
0.14008
0.140081
0.140083
0.140084
0.140084
0.140085
0.140085
0.140085
0.140085
0.140085
0.140084
0.140084
0.140084
0.140084
0.140084
0.140084
0.140084
0.140085
0.140085
0.140086
0.140087
0.140088
0.14009
0.140091
0.140093
0.140095
0.140098
0.1401
0.140103
0.140106
0.140109
0.140113
0.140117
0.140121
0.140125
0.14013
0.140135
0.14014
0.140146
0.140151
0.140157
0.140164
0.14017
0.140177
0.140185
0.140192
0.1402
0.140208
0.140217
0.140226
0.140235
0.140245
0.140256
0.140266
0.140278
0.140289
0.140302
0.140315
0.140329
0.140344
0.140361
0.140377
0.140392
0.140407
0.140402
0.140372
0.140217
0.140402
0.138007
0.15532
0.140004
0.140011
0.140017
0.140024
0.140029
0.140035
0.14004
0.140045
0.140049
0.140054
0.140058
0.140062
0.140065
0.140069
0.140072
0.140074
0.140077
0.140079
0.140081
0.140083
0.140084
0.140085
0.140086
0.140087
0.140087
0.140088
0.140088
0.140088
0.140088
0.140087
0.140086
0.140086
0.140086
0.140086
0.140086
0.140086
0.140086
0.140087
0.140087
0.140088
0.140089
0.14009
0.140092
0.140093
0.140095
0.140097
0.140099
0.140102
0.140105
0.140108
0.140111
0.140115
0.140118
0.140123
0.140127
0.140132
0.140136
0.140142
0.140147
0.140153
0.140159
0.140165
0.140172
0.140179
0.140186
0.140193
0.140201
0.140209
0.140218
0.140227
0.140236
0.140246
0.140256
0.140267
0.140279
0.140291
0.140305
0.14032
0.140337
0.140356
0.140378
0.140402
0.140429
0.140449
0.140458
0.140315
0.140511
0.137895
0.158517
0.140004
0.140011
0.140018
0.140025
0.140031
0.140036
0.140042
0.140047
0.140051
0.140056
0.14006
0.140064
0.140067
0.140071
0.140074
0.140077
0.140079
0.140081
0.140083
0.140085
0.140087
0.140088
0.140089
0.14009
0.14009
0.14009
0.140091
0.14009
0.14009
0.14009
0.140089
0.140088
0.140088
0.140088
0.140087
0.140087
0.140087
0.140088
0.140088
0.140089
0.14009
0.140091
0.140092
0.140093
0.140095
0.140097
0.140099
0.140101
0.140104
0.140106
0.140109
0.140113
0.140116
0.14012
0.140124
0.140128
0.140133
0.140138
0.140143
0.140148
0.140154
0.14016
0.140166
0.140173
0.14018
0.140187
0.140194
0.140202
0.14021
0.140218
0.140227
0.140236
0.140246
0.140256
0.140266
0.140277
0.140288
0.140301
0.140315
0.140331
0.140351
0.140374
0.140404
0.140432
0.140473
0.140319
0.140493
0.1375
0.161633
0.140004
0.140012
0.140019
0.140026
0.140032
0.140038
0.140043
0.140049
0.140053
0.140058
0.140062
0.140066
0.14007
0.140073
0.140076
0.140079
0.140081
0.140084
0.140086
0.140087
0.140089
0.14009
0.140091
0.140092
0.140093
0.140093
0.140093
0.140093
0.140093
0.140092
0.140092
0.140091
0.14009
0.140089
0.140089
0.140089
0.140089
0.140089
0.140089
0.14009
0.14009
0.140091
0.140092
0.140093
0.140095
0.140096
0.140098
0.1401
0.140103
0.140105
0.140108
0.140111
0.140115
0.140118
0.140122
0.140126
0.140131
0.140136
0.140141
0.140146
0.140152
0.140158
0.140164
0.14017
0.140177
0.140184
0.140192
0.1402
0.140208
0.140217
0.140226
0.140236
0.140246
0.140257
0.140268
0.140279
0.14029
0.140303
0.140315
0.140329
0.140345
0.140364
0.140391
0.14042
0.140479
0.140376
0.140593
0.137097
0.164813
0.140004
0.140012
0.14002
0.140027
0.140033
0.140039
0.140045
0.14005
0.140055
0.14006
0.140064
0.140068
0.140072
0.140075
0.140078
0.140081
0.140084
0.140086
0.140088
0.14009
0.140091
0.140092
0.140093
0.140094
0.140095
0.140095
0.140095
0.140095
0.140095
0.140094
0.140094
0.140093
0.140092
0.140091
0.140091
0.14009
0.14009
0.14009
0.14009
0.14009
0.140091
0.140091
0.140092
0.140093
0.140095
0.140096
0.140098
0.1401
0.140102
0.140105
0.140107
0.14011
0.140113
0.140117
0.140121
0.140125
0.140129
0.140133
0.140138
0.140143
0.140149
0.140155
0.140161
0.140167
0.140174
0.140182
0.140189
0.140197
0.140206
0.140215
0.140225
0.140235
0.140246
0.140258
0.140271
0.140284
0.140298
0.140312
0.140327
0.140342
0.140358
0.140376
0.1404
0.140428
0.140495
0.140448
0.140771
0.136939
0.168271
0.140004
0.140013
0.14002
0.140028
0.140034
0.140041
0.140046
0.140052
0.140057
0.140062
0.140066
0.14007
0.140074
0.140077
0.14008
0.140083
0.140085
0.140088
0.14009
0.140091
0.140093
0.140094
0.140095
0.140096
0.140096
0.140097
0.140097
0.140097
0.140097
0.140096
0.140095
0.140095
0.140093
0.140092
0.140092
0.140091
0.140091
0.14009
0.14009
0.14009
0.140091
0.140091
0.140092
0.140093
0.140094
0.140095
0.140097
0.140099
0.140101
0.140103
0.140106
0.140109
0.140112
0.140115
0.140119
0.140123
0.140127
0.140131
0.140136
0.140141
0.140146
0.140152
0.140158
0.140164
0.140171
0.140178
0.140185
0.140193
0.140201
0.14021
0.14022
0.14023
0.14024
0.140252
0.140264
0.140278
0.140292
0.140307
0.140323
0.14034
0.140356
0.140373
0.140392
0.140408
0.140459
0.140394
0.140791
0.136642
0.171508
0.140004
0.140013
0.140021
0.140028
0.140035
0.140042
0.140048
0.140053
0.140058
0.140063
0.140068
0.140072
0.140075
0.140079
0.140082
0.140085
0.140087
0.140089
0.140091
0.140093
0.140094
0.140096
0.140097
0.140097
0.140098
0.140098
0.140098
0.140098
0.140098
0.140097
0.140097
0.140096
0.140095
0.140093
0.140092
0.140092
0.140091
0.140091
0.14009
0.14009
0.14009
0.140091
0.140091
0.140092
0.140093
0.140095
0.140096
0.140098
0.1401
0.140102
0.140105
0.140108
0.140111
0.140114
0.140118
0.140122
0.140126
0.140131
0.140135
0.140141
0.140146
0.140152
0.140158
0.140164
0.140171
0.140178
0.140186
0.140194
0.140202
0.140211
0.14022
0.14023
0.140241
0.140253
0.140265
0.140279
0.140294
0.14031
0.140327
0.140346
0.140366
0.140385
0.140405
0.140421
0.140466
0.140408
0.140867
0.136546
0.175135
0.140005
0.140013
0.140021
0.140029
0.140036
0.140043
0.140049
0.140054
0.14006
0.140064
0.140069
0.140073
0.140077
0.14008
0.140083
0.140086
0.140088
0.140091
0.140092
0.140094
0.140096
0.140097
0.140098
0.140098
0.140099
0.140099
0.140099
0.140099
0.140099
0.140098
0.140097
0.140097
0.140095
0.140094
0.140093
0.140092
0.140091
0.140091
0.14009
0.14009
0.140091
0.140091
0.140091
0.140092
0.140093
0.140095
0.140096
0.140098
0.1401
0.140102
0.140105
0.140107
0.14011
0.140114
0.140117
0.140121
0.140126
0.14013
0.140135
0.140141
0.140146
0.140152
0.140158
0.140165
0.140172
0.140179
0.140187
0.140195
0.140204
0.140213
0.140222
0.140233
0.140243
0.140255
0.140268
0.140281
0.140296
0.140313
0.140331
0.140352
0.140374
0.140396
0.14042
0.140438
0.140482
0.140426
0.140964
0.13639
0.179033
0.140005
0.140013
0.140022
0.140029
0.140037
0.140043
0.14005
0.140055
0.140061
0.140066
0.14007
0.140074
0.140078
0.140081
0.140084
0.140087
0.140089
0.140092
0.140093
0.140095
0.140097
0.140098
0.140099
0.140099
0.1401
0.1401
0.1401
0.1401
0.140099
0.140099
0.140098
0.140097
0.140095
0.140094
0.140093
0.140092
0.140091
0.140091
0.140091
0.14009
0.140091
0.140091
0.140092
0.140092
0.140093
0.140095
0.140096
0.140098
0.1401
0.140102
0.140105
0.140108
0.140111
0.140114
0.140118
0.140122
0.140126
0.14013
0.140135
0.140141
0.140146
0.140152
0.140158
0.140165
0.140172
0.14018
0.140188
0.140196
0.140204
0.140213
0.140223
0.140233
0.140244
0.140255
0.140268
0.140281
0.140295
0.140311
0.140329
0.140349
0.140372
0.140396
0.140421
0.14044
0.140481
0.140413
0.140973
0.135937
0.182707
0.140005
0.140014
0.140022
0.14003
0.140037
0.140044
0.14005
0.140056
0.140062
0.140067
0.140071
0.140075
0.140079
0.140082
0.140085
0.140088
0.14009
0.140092
0.140094
0.140096
0.140097
0.140098
0.140099
0.1401
0.1401
0.1401
0.1401
0.1401
0.1401
0.140099
0.140098
0.140097
0.140095
0.140094
0.140093
0.140092
0.140091
0.140091
0.140091
0.140091
0.140091
0.140091
0.140092
0.140093
0.140094
0.140095
0.140097
0.140099
0.140101
0.140103
0.140106
0.140109
0.140112
0.140115
0.140119
0.140123
0.140127
0.140132
0.140137
0.140142
0.140148
0.140154
0.14016
0.140167
0.140174
0.140182
0.14019
0.140198
0.140207
0.140217
0.140227
0.140237
0.140248
0.14026
0.140272
0.140286
0.140301
0.140317
0.140335
0.140356
0.14038
0.140406
0.140435
0.140459
0.1405
0.140437
0.14102
0.135853
0.18698
0.140005
0.140014
0.140022
0.14003
0.140037
0.140044
0.140051
0.140057
0.140062
0.140067
0.140072
0.140076
0.14008
0.140083
0.140086
0.140089
0.140091
0.140093
0.140095
0.140097
0.140098
0.140099
0.1401
0.1401
0.140101
0.140101
0.140101
0.1401
0.1401
0.140099
0.140098
0.140096
0.140095
0.140094
0.140093
0.140092
0.140091
0.140091
0.140091
0.140091
0.140091
0.140092
0.140092
0.140093
0.140095
0.140096
0.140098
0.1401
0.140102
0.140104
0.140107
0.14011
0.140113
0.140117
0.14012
0.140124
0.140129
0.140134
0.140139
0.140144
0.14015
0.140156
0.140162
0.140169
0.140176
0.140184
0.140192
0.140201
0.14021
0.140219
0.14023
0.14024
0.140252
0.140264
0.140277
0.140291
0.140306
0.140322
0.140341
0.140362
0.140386
0.140413
0.140444
0.140473
0.140516
0.140452
0.141087
0.135656
0.191418
0.140005
0.140014
0.140022
0.14003
0.140037
0.140045
0.140051
0.140057
0.140063
0.140068
0.140072
0.140077
0.14008
0.140084
0.140087
0.140089
0.140092
0.140094
0.140096
0.140097
0.140099
0.1401
0.1401
0.140101
0.140101
0.140101
0.140101
0.1401
0.1401
0.140099
0.140098
0.140096
0.140095
0.140094
0.140093
0.140092
0.140091
0.140091
0.140091
0.140091
0.140092
0.140092
0.140093
0.140094
0.140095
0.140097
0.140098
0.1401
0.140103
0.140105
0.140108
0.140111
0.140114
0.140118
0.140122
0.140126
0.140131
0.140135
0.140141
0.140146
0.140152
0.140158
0.140164
0.140171
0.140178
0.140186
0.140194
0.140203
0.140212
0.140222
0.140232
0.140243
0.140255
0.140267
0.140281
0.140295
0.14031
0.140327
0.140345
0.140365
0.140389
0.140417
0.140449
0.140481
0.140526
0.140464
0.141081
0.135415
0.195863
0.140005
0.140014
0.140022
0.14003
0.140038
0.140045
0.140052
0.140058
0.140063
0.140068
0.140073
0.140077
0.140081
0.140084
0.140087
0.14009
0.140093
0.140095
0.140097
0.140098
0.140099
0.1401
0.140101
0.140101
0.140101
0.140101
0.140101
0.1401
0.1401
0.140099
0.140097
0.140096
0.140094
0.140093
0.140092
0.140092
0.140091
0.140091
0.140091
0.140091
0.140092
0.140093
0.140093
0.140095
0.140096
0.140098
0.140099
0.140102
0.140104
0.140107
0.140109
0.140113
0.140116
0.14012
0.140124
0.140128
0.140133
0.140138
0.140143
0.140149
0.140155
0.140161
0.140167
0.140174
0.140182
0.14019
0.140198
0.140207
0.140216
0.140226
0.140237
0.140248
0.14026
0.140273
0.140287
0.140301
0.140317
0.140335
0.140354
0.140375
0.140399
0.140428
0.140461
0.140499
0.140544
0.140497
0.141099
0.135397
0.201004
0.140005
0.140014
0.140022
0.14003
0.140038
0.140045
0.140052
0.140058
0.140064
0.140069
0.140073
0.140078
0.140081
0.140085
0.140088
0.140091
0.140093
0.140095
0.140097
0.140099
0.1401
0.140101
0.140101
0.140102
0.140102
0.140101
0.140101
0.1401
0.140099
0.140098
0.140097
0.140095
0.140094
0.140093
0.140092
0.140092
0.140091
0.140091
0.140091
0.140092
0.140092
0.140093
0.140094
0.140095
0.140097
0.140098
0.1401
0.140103
0.140105
0.140108
0.140111
0.140114
0.140118
0.140122
0.140126
0.140131
0.140135
0.14014
0.140146
0.140152
0.140158
0.140164
0.140171
0.140178
0.140185
0.140193
0.140201
0.14021
0.14022
0.14023
0.140241
0.140252
0.140265
0.140278
0.140292
0.140307
0.140324
0.140342
0.140361
0.140383
0.140408
0.140437
0.140471
0.140512
0.140558
0.140523
0.1411
0.135228
0.206243
0.140005
0.140013
0.140022
0.14003
0.140038
0.140045
0.140052
0.140058
0.140064
0.140069
0.140074
0.140078
0.140082
0.140085
0.140088
0.140091
0.140094
0.140096
0.140098
0.140099
0.1401
0.140101
0.140102
0.140102
0.140102
0.140102
0.140101
0.1401
0.140099
0.140098
0.140096
0.140095
0.140094
0.140093
0.140092
0.140092
0.140091
0.140091
0.140091
0.140092
0.140093
0.140093
0.140095
0.140096
0.140098
0.140099
0.140101
0.140104
0.140106
0.140109
0.140113
0.140116
0.14012
0.140124
0.140128
0.140133
0.140138
0.140143
0.140149
0.140155
0.140161
0.140167
0.140174
0.140181
0.140189
0.140197
0.140205
0.140214
0.140224
0.140234
0.140245
0.140257
0.140269
0.140283
0.140297
0.140313
0.14033
0.140348
0.140368
0.140391
0.140416
0.140446
0.140479
0.140524
0.140569
0.140549
0.141107
0.135072
0.211646
0.140005
0.140013
0.140022
0.14003
0.140038
0.140045
0.140052
0.140058
0.140064
0.140069
0.140074
0.140078
0.140082
0.140086
0.140089
0.140092
0.140094
0.140097
0.140098
0.1401
0.140101
0.140102
0.140102
0.140102
0.140102
0.140102
0.140101
0.1401
0.140099
0.140098
0.140096
0.140095
0.140093
0.140093
0.140092
0.140091
0.140091
0.140091
0.140092
0.140092
0.140093
0.140094
0.140095
0.140097
0.140098
0.1401
0.140103
0.140105
0.140108
0.140111
0.140114
0.140118
0.140122
0.140126
0.140131
0.140135
0.140141
0.140146
0.140152
0.140158
0.140164
0.140171
0.140178
0.140185
0.140193
0.140201
0.14021
0.140219
0.140229
0.140239
0.14025
0.140262
0.140275
0.140289
0.140304
0.14032
0.140338
0.140357
0.140378
0.140401
0.140427
0.140459
0.140493
0.140543
0.140583
0.14059
0.141127
0.135137
0.21785
0.140005
0.140013
0.140021
0.14003
0.140038
0.140045
0.140052
0.140058
0.140064
0.140069