/*--------------------------------*- C++ -*----------------------------------*\
  =========                 |
  \\      /  F ield         | OpenFOAM: The Open Source CFD Toolbox
   \\    /   O peration     | Website:  https://openfoam.org
    \\  /    A nd           | Version:  11
     \\/     M anipulation  |
\*---------------------------------------------------------------------------*/
FoamFile
{
    format      ascii;
    class       volScalarField;
    location    "50";
    object      p;
}
// * * * * * * * * * * * * * * * * * * * * * * * * * * * * * * * * * * * * * //

dimensions      [0 2 -2 0 0 0 0];

internalField   nonuniform List<scalar> 
31595
(
0.0760173
0.0488144
0.0658307
0.0675149
0.0762152
0.0801602
0.0872665
0.0926664
0.0994934
0.106031
0.113134
0.120293
0.127901
0.135864
0.144248
0.152894
0.161705
0.170542
0.179335
0.188008
0.196542
0.204921
0.213169
0.221283
0.229258
0.237046
0.244591
0.251831
0.258703
0.265152
0.27113
0.276596
0.281525
0.285879
0.28964
0.292745
0.295157
0.296802
0.297631
0.297574
0.296628
0.294741
0.29189
0.288074
0.283378
0.27788
0.27178
0.265073
0.257884
0.2503
0.242494
0.234693
0.227056
0.219765
0.212897
0.206656
0.201043
0.196299
0.192447
0.189721
0.188169
0.18799
0.189192
0.191849
0.195981
0.201651
0.208694
0.216935
0.226131
0.235972
0.245869
0.255072
0.262513
0.267066
0.266351
0.259406
0.239649
0.210273
0.148593
0.0836288
-0.0732591
-0.182714
-0.564381
-0.69484
-1.59743
-1.72501
-3.69528
-3.90228
-8.63346
0.0647349
0.0559005
0.0620576
0.0697938
0.0762923
0.0820067
0.0883938
0.0945462
0.101168
0.10803
0.115172
0.122483
0.130087
0.138042
0.146382
0.155025
0.163863
0.17277
0.181661
0.190468
0.199157
0.207719
0.216171
0.224535
0.23282
0.241015
0.249072
0.256943
0.264556
0.271864
0.27881
0.285365
0.291496
0.297188
0.302415
0.307151
0.311361
0.315009
0.318059
0.320482
0.322262
0.323392
0.323873
0.323732
0.323036
0.321866
0.320341
0.318532
0.316558
0.314549
0.312677
0.311139
0.310109
0.309752
0.31019
0.311586
0.314046
0.317748
0.322806
0.329397
0.33764
0.347705
0.359694
0.373682
0.389718
0.407863
0.42806
0.450166
0.473983
0.499222
0.525401
0.551856
0.577592
0.601485
0.621384
0.636058
0.639657
0.634175
0.599219
0.559669
0.432529
0.350204
-0.00486609
-0.0991034
-1.00674
-1.06331
-3.13366
-3.25191
-7.96856
0.0615503
0.0587867
0.0617388
0.0705807
0.0770695
0.0831401
0.0894429
0.0957946
0.102397
0.109353
0.116556
0.123937
0.131542
0.139463
0.147754
0.156378
0.165239
0.174217
0.183216
0.192167
0.20103
0.209793
0.218472
0.2271
0.235707
0.244304
0.252871
0.261364
0.269723
0.277892
0.285815
0.293462
0.300803
0.307827
0.314521
0.320873
0.326868
0.332494
0.337735
0.342585
0.347044
0.351125
0.354852
0.358269
0.361441
0.364456
0.367402
0.370381
0.373514
0.376954
0.380875
0.385464
0.390898
0.397345
0.404954
0.413886
0.424297
0.436354
0.450217
0.466057
0.484031
0.504315
0.52705
0.552358
0.580318
0.611009
0.644439
0.680535
0.719149
0.760044
0.802828
0.846924
0.891442
0.935316
0.976598
1.01391
1.04207
1.06199
1.05573
1.04349
0.950452
0.895596
0.57874
0.514315
-0.374181
-0.375487
-2.51527
-2.61734
-7.51533
0.0624759
0.0611073
0.0628317
0.0714404
0.0782563
0.084349
0.0906726
0.0970612
0.103666
0.110637
0.117891
0.125325
0.132947
0.140847
0.149104
0.157718
0.166613
0.175676
0.184805
0.193926
0.202994
0.211992
0.220934
0.229855
0.2388
0.247803
0.25687
0.265976
0.275073
0.284103
0.293015
0.301773
0.310352
0.318742
0.32694
0.334947
0.342765
0.350399
0.357853
0.36514
0.372275
0.379287
0.386216
0.39312
0.400073
0.407159
0.414474
0.42213
0.430258
0.439017
0.448582
0.45914
0.470874
0.483962
0.498576
0.514888
0.533078
0.553333
0.575833
0.60077
0.628332
0.658704
0.692074
0.728591
0.768392
0.811584
0.858232
0.908328
0.961806
1.01848
1.07807
1.14008
1.20373
1.26807
1.33136
1.39216
1.44587
1.4926
1.51661
1.53384
1.47784
1.45274
1.18123
1.1449
0.293339
0.340712
-1.85859
-1.97628
-7.14425
0.0642217
0.0637289
0.0643487
0.072502
0.0794712
0.0855331
0.0918059
0.0981735
0.104734
0.111672
0.118937
0.126402
0.134035
0.141914
0.150132
0.158726
0.167645
0.17679
0.186054
0.195358
0.204651
0.21391
0.223142
0.232382
0.241684
0.251098
0.260657
0.270359
0.280171
0.290046
0.299935
0.309796
0.319606
0.329357
0.339054
0.348708
0.358336
0.367958
0.377598
0.387282
0.397042
0.406924
0.416979
0.427276
0.437898
0.448937
0.460499
0.472704
0.485692
0.499626
0.514686
0.531059
0.548938
0.568515
0.589977
0.613516
0.639333
0.667632
0.698623
0.732516
0.769529
0.809876
0.853769
0.901406
0.952968
1.00861
1.06846
1.13258
1.20096
1.27352
1.35006
1.4302
1.5133
1.59852
1.68434
1.76934
1.84944
1.92413
1.97966
2.02823
2.01129
2.01829
1.79654
1.78812
0.985484
1.07623
-1.17771
-1.14201
-6.29701
0.0662907
0.0665104
0.0661565
0.0737224
0.0807153
0.0867061
0.0928789
0.0991808
0.105663
0.112529
0.119768
0.127244
0.134886
0.142747
0.150929
0.159498
0.168435
0.177656
0.187055
0.196547
0.206076
0.215614
0.225161
0.234745
0.244423
0.254259
0.264307
0.274592
0.285103
0.295806
0.306656
0.317613
0.328651
0.339762
0.350954
0.362248
0.373674
0.385265
0.397061
0.409102
0.421438
0.434126
0.447231
0.460832
0.475022
0.489902
0.505589
0.522213
0.539922
0.558885
0.579284
0.601315
0.625179
0.651082
0.679228
0.709827
0.743103
0.77928
0.818593
0.861281
0.907583
0.957753
1.01203
1.07067
1.13388
1.20189
1.27487
1.35297
1.43626
1.52475
1.61833
1.71677
1.81957
1.92603
2.03482
2.14463
2.25189
2.35568
2.44396
2.52584
2.54998
2.59215
2.42416
2.44606
1.70412
1.83243
-0.442237
-0.14832
-5.48129
0.0682888
0.069232
0.0680833
0.0749962
0.0819131
0.0878055
0.0938427
0.100045
0.106421
0.113183
0.120363
0.127826
0.135469
0.143314
0.15146
0.159997
0.168939
0.178222
0.187747
0.197423
0.207189
0.217013
0.226887
0.236835
0.246906
0.257173
0.267707
0.278558
0.289743
0.301245
0.313029
0.325058
0.337304
0.349758
0.36243
0.375347
0.388547
0.402076
0.415986
0.430335
0.445186
0.460607
0.476679
0.49349
0.511142
0.529748
0.549435
0.570343
0.592628
0.616467
0.642048
0.669576
0.69926
0.73132
0.765979
0.803466
0.844024
0.887901
0.935357
0.98666
1.04208
1.1019
1.16641
1.2359
1.31063
1.39087
1.47689
1.56889
1.66705
1.77146
1.88215
1.99899
2.12168
2.24966
2.38186
2.5171
2.65233
2.78638
2.90877
3.02616
3.09372
3.175
3.06534
3.12298
2.45465
2.62014
0.368418
0.841332
-5.05209
0.0701069
0.0717555
0.0700125
0.0762486
0.0830152
0.0887891
0.0946701
0.100747
0.106999
0.113633
0.120724
0.128151
0.135786
0.143616
0.151728
0.160229
0.169164
0.178493
0.188129
0.19798
0.207978
0.218087
0.228295
0.238617
0.249097
0.259806
0.270827
0.282232
0.294063
0.30633
0.319012
0.332079
0.345503
0.359275
0.373402
0.387914
0.402856
0.418283
0.434261
0.45086
0.468157
0.486233
0.505182
0.525102
0.546106
0.568318
0.591874
0.616925
0.643638
0.672196
0.702796
0.73565
0.770981
0.809021
0.850011
0.894201
0.941853
0.993238
1.04864
1.10837
1.17272
1.242
1.31655
1.3967
1.48278
1.5751
1.67401
1.7798
1.89272
2.013
2.14077
2.27607
2.41873
2.56843
2.72434
2.88549
3.04932
3.21458
3.37227
3.52707
3.6401
3.76405
3.71678
3.81555
3.23238
3.43685
1.24748
1.80308
-4.70346
0.0716665
0.0739797
0.0718396
0.0774104
0.0839693
0.0896102
0.095324
0.10126
0.107373
0.113863
0.120841
0.128209
0.135824
0.143637
0.151718
0.16018
0.169094
0.178453
0.188183
0.198192
0.208411
0.218797
0.229336
0.240037
0.250934
0.262094
0.273604
0.285551
0.298004
0.310998
0.324535
0.338596
0.353157
0.368208
0.383756
0.399827
0.416471
0.433752
0.451743
0.470529
0.490198
0.510846
0.532576
0.5555
0.579742
0.605435
0.632727
0.661779
0.692768
0.725884
0.761337
0.799346
0.840146
0.883987
0.931124
0.981826
1.03638
1.09508
1.15824
1.22618
1.29926
1.37781
1.4622
1.55282
1.65007
1.75431
1.86595
1.98537
2.11294
2.24899
2.39378
2.5475
2.71019
2.88171
3.06152
3.2489
3.44176
3.63893
3.83273
4.02635
4.18622
4.35546
4.37312
4.51677
4.0264
4.26884
2.16253
2.795
-3.67575
0.0729389
0.0758465
0.0734858
0.0784251
0.0847323
0.0902286
0.09577
0.101555
0.107522
0.113856
0.1207
0.127987
0.135568
0.143363
0.151414
0.159835
0.16872
0.17809
0.187892
0.19804
0.208462
0.219111
0.229971
0.241045
0.252362
0.263978
0.275978
0.288459
0.301511
0.315195
0.329538
0.34454
0.360186
0.376466
0.393386
0.410973
0.429273
0.448355
0.468302
0.489205
0.511168
0.534299
0.558712
0.584532
0.611892
0.64094
0.671831
0.704738
0.739846
0.777359
0.817494
0.860482
0.906571
0.956026
1.00912
1.06614
1.12739
1.1932
1.2639
1.33986
1.42144
1.50905
1.60308
1.70397
1.81216
1.92812
2.05231
2.18519
2.32725
2.47892
2.64062
2.8127
2.99539
3.18876
3.3926
3.60645
3.82872
4.05841
4.28914
4.52295
4.73115
4.94856
5.03407
5.22786
4.83873
5.12236
3.12065
3.84089
-2.53752
0.0739019
0.0773166
0.0748885
0.0792451
0.0852674
0.0906078
0.0959753
0.101602
0.107419
0.113592
0.120287
0.127472
0.135002
0.142772
0.150796
0.159175
0.168021
0.177385
0.187236
0.197501
0.208103
0.218995
0.230157
0.241592
0.25332
0.265391
0.27788
0.290889
0.304519
0.318856
0.333954
0.349837
0.366506
0.383955
0.402189
0.421233
0.441132
0.461956
0.483791
0.506739
0.530912
0.556431
0.583421
0.612021
0.642375
0.674641
0.708986
0.745591
0.784656
0.826392
0.871027
0.918806
0.969989
1.02485
1.08369
1.14681
1.21454
1.28723
1.36524
1.44896
1.5388
1.6352
1.73861
1.84951
1.96839
2.09579
2.23226
2.37834
2.53462
2.70166
2.88004
3.07028
3.2728
3.48793
3.71575
3.95614
4.20803
4.47072
4.73903
5.01435
5.27241
5.54119
5.69788
5.94886
5.67043
6.00594
4.14221
4.92654
-1.83234
0.074551
0.0783696
0.0760003
0.0798304
0.0855432
0.0907169
0.0959102
0.101376
0.107041
0.113049
0.119583
0.126647
0.134109
0.141847
0.149842
0.158181
0.166982
0.176322
0.1862
0.196554
0.207312
0.218422
0.229863
0.241637
0.253761
0.266276
0.279249
0.292776
0.306967
0.321925
0.337731
0.354433
0.372054
0.3906
0.410078
0.430511
0.451942
0.474439
0.498091
0.523006
0.549301
0.57711
0.60657
0.63783
0.671048
0.70639
0.744038
0.784183
0.827034
0.872815
0.921763
0.974137
1.03021
1.09028
1.15464
1.22363
1.2976
1.37693
1.462
1.55323
1.65107
1.75598
1.86848
1.98909
2.11837
2.25691
2.40535
2.56432
2.73452
2.91663
3.11139
3.31949
3.54158
3.77822
4.02984
4.29665
4.57813
4.87397
5.18019
5.49782
5.80667
6.12909
6.3593
6.67261
6.51229
6.90634
5.21845
6.04604
-1.07438
0.074881
0.0789924
0.076783
0.0801468
0.0855334
0.0905291
0.0955482
0.100851
0.106364
0.112206
0.118571
0.125498
0.132874
0.140568
0.148533
0.156832
0.165585
0.174888
0.184767
0.195183
0.206069
0.21737
0.229062
0.241147
0.253643
0.266585
0.280031
0.294066
0.308802
0.324352
0.340822
0.358285
0.376785
0.396348
0.41699
0.438735
0.461623
0.48572
0.511113
0.537912
0.566242
0.596243
0.628066
0.661869
0.697822
0.736103
0.776905
0.820432
0.866903
0.916553
0.969632
1.02641
1.08718
1.15224
1.22192
1.29657
1.37656
1.46229
1.55418
1.65268
1.75826
1.87145
1.99278
2.12284
2.26224
2.41165
2.57178
2.74337
2.92721
3.12413
3.33497
3.56067
3.80206
4.06
4.3352
4.62827
4.93922
5.26819
5.61234
5.97262
6.33254
6.70973
7.01427
7.39225
7.35363
7.80452
6.3104
7.17491
0.654757
0.0748921
0.0791805
0.0772065
0.0801646
0.0852146
0.090021
0.0948654
0.100004
0.105365
0.111042
0.117233
0.124007
0.131278
0.138914
0.146843
0.155103
0.163805
0.173058
0.182918
0.193367
0.204348
0.215808
0.227719
0.240084
0.25292
0.266261
0.280157
0.294684
0.309947
0.326064
0.343156
0.36132
0.380628
0.401125
0.422842
0.445809
0.470067
0.495677
0.522726
0.551321
0.581592
0.613685
0.647758
0.683982
0.722536
0.763614
0.807417
0.854161
0.904078
0.957414
1.01443
1.07542
1.14067
1.21051
1.28529
1.36536
1.45114
1.54302
1.64147
1.74697
1.86002
1.98118
2.11105
2.25026
2.39947
2.55943
2.73093
2.91479
3.11193
3.32329
3.5499
3.79283
4.05319
4.33208
4.63056
4.94965
5.2899
5.65198
6.03418
6.43763
6.84937
7.28339
7.66437
8.11292
8.20258
8.72231
7.44564
8.36189
2.00989
0.0745802
0.078932
0.0772467
0.079858
0.0845667
0.0891724
0.0938407
0.0988138
0.104023
0.109538
0.115551
0.122158
0.129305
0.136865
0.14475
0.152969
0.161618
0.170813
0.180631
0.191083
0.202126
0.213711
0.225807
0.238414
0.251552
0.265256
0.279572
0.294566
0.310333
0.32699
0.344665
0.363476
0.383519
0.404865
0.427562
0.451651
0.477178
0.504203
0.53281
0.563103
0.595213
0.629288
0.665494
0.704009
0.745025
0.788746
0.835384
0.88517
0.938346
0.995171
1.05592
1.12089
1.1904
1.26478
1.3444
1.42964
1.52091
1.61867
1.72338
1.83556
1.95576
2.08455
2.22259
2.37056
2.52919
2.69928
2.88169
3.07736
3.2873
3.51259
3.75441
4.01402
4.29274
4.59197
4.9131
5.25756
5.62648
6.02108
6.4408
6.88717
7.3505
7.84223
8.3003
8.82384
9.04552
9.64611
8.61273
9.58817
3.20898
0.0739459
0.0782503
0.0768849
0.0792045
0.0835724
0.0879672
0.0924567
0.0972628
0.10232
0.107676
0.11351
0.119939
0.126941
0.134405
0.142233
0.150407
0.159001
0.168131
0.177892
0.188318
0.199389
0.211062
0.223305
0.236115
0.249515
0.26354
0.278235
0.293662
0.309904
0.327073
0.345298
0.364707
0.385421
0.407532
0.431113
0.456221
0.482911
0.511245
0.541304
0.573192
0.607035
0.642984
0.681207
0.721889
0.765232
0.811449
0.860766
0.913424
0.96968
1.0298
1.09408
1.16283
1.23637
1.31507
1.39929
1.48945
1.58597
1.68933
1.80002
1.9186
2.04563
2.18175
2.32764
2.48403
2.65171
2.83155
3.02449
3.23155
3.45387
3.69264
3.94919
4.22497
4.52153
4.84053
5.18373
5.55294
5.94988
6.37636
6.83291
7.32166
7.8359
8.38524
8.9199
9.51986
9.87474
10.5585
9.7872
10.8133
4.95123
0.0729816
0.0771381
0.0761055
0.0781843
0.0822167
0.0863913
0.0906988
0.0953355
0.10024
0.105439
0.111094
0.117337
0.124176
0.131521
0.139273
0.147393
0.15593
0.16499
0.174678
0.185053
0.196117
0.207839
0.220189
0.233162
0.246778
0.261077
0.276106
0.291922
0.308603
0.32625
0.344988
0.36495
0.386273
0.409071
0.433443
0.459465
0.487205
0.516733
0.54813
0.581499
0.616963
0.654671
0.694792
0.737515
0.78305
0.831617
0.883455
0.938817
0.99797
1.0612
1.12881
1.20112
1.27848
1.36126
1.44985
1.54467
1.64618
1.75487
1.87127
1.99595
2.12952
2.27265
2.42606
2.59051
2.76689
2.95611
3.15919
3.37723
3.61147
3.86326
4.13406
4.4255
4.73936
5.07757
5.44223
5.83557
6.25987
6.71758
7.2103
7.74086
8.3054
8.91241
9.5233
10.2019
10.6914
11.465
10.9704
12.0526
6.82619
0.0716825
0.0756006
0.0748972
0.0767803
0.0804864
0.0844331
0.0885545
0.0930187
0.0977692
0.102812
0.10829
0.11434
0.120997
0.128199
0.135852
0.143904
0.152378
0.161363
0.170966
0.181266
0.192289
0.204019
0.216433
0.229523
0.243309
0.257831
0.27314
0.289295
0.306367
0.324448
0.343655
0.364125
0.385999
0.409411
0.43448
0.461307
0.489979
0.520576
0.553185
0.587908
0.624866
0.664205
0.706093
0.750722
0.798303
0.849067
0.903259
0.961143
1.023
1.08913
1.15985
1.23549
1.31642
1.40303
1.49571
1.59492
1.70112
1.81484
1.93662
2.06706
2.20681
2.35656
2.51708
2.68919
2.8738
3.07191
3.28461
3.51308
3.75867
4.02284
4.3072
4.61356
4.94392
5.30048
5.68567
6.10214
6.55272
7.04052
7.56816
8.13935
8.75286
9.41683
10.1027
10.8617
11.4858
12.3604
12.1565
13.317
8.43498
0.0700385
0.0736432
0.0732515
0.0749778
0.0783706
0.082084
0.0860147
0.0903028
0.0948963
0.099785
0.105088
0.110941
0.117401
0.124434
0.131962
0.139924
0.148322
0.157225
0.166735
0.176941
0.187891
0.199589
0.212022
0.225182
0.239089
0.253782
0.269315
0.285751
0.303158
0.321622
0.341253
0.36218
0.384548
0.408505
0.434188
0.461719
0.491205
0.522744
0.556432
0.592375
0.630693
0.671531
0.715052
0.761449
0.810933
0.86374
0.920123
0.980355
1.04473
1.11356
1.18717
1.26592
1.35018
1.44035
1.53687
1.64019
1.7508
1.86924
1.99608
2.13195
2.27752
2.43353
2.60078
2.78012
2.97255
3.17908
3.4009
3.63928
3.89564
4.17157
4.46884
4.7894
5.13548
5.50953
5.91429
6.35285
6.82854
7.34513
7.90623
8.51647
9.17705
9.89624
10.6545
11.493
12.2479
13.2254
13.3174
14.558
10.3669
0.0680399
0.0712726
0.0711639
0.0727659
0.0758611
0.0793378
0.0830734
0.0871807
0.0916129
0.0963469
0.101477
0.107131
0.113381
0.120222
0.127595
0.135441
0.143746
0.152557
0.161963
0.172058
0.182907
0.194534
0.20694
0.220124
0.2341
0.24891
0.264609
0.281263
0.298943
0.317731
0.337729
0.359061
0.381869
0.406305
0.432522
0.460662
0.490851
0.523207
0.557841
0.594866
0.634406
0.676603
0.72162
0.769645
0.82089
0.875591
0.934006
0.996419
1.06313
1.13447
1.21077
1.2924
1.37977
1.47328
1.57337
1.68054
1.79528
1.91816
2.04977
2.19077
2.34185
2.50378
2.6774
2.86362
3.06345
3.27801
3.50851
3.75632
4.02295
4.31012
4.6197
4.95385
5.31496
5.70574
6.12926
6.58898
7.08877
7.63301
8.22628
8.87415
9.58007
10.3529
11.1811
12.0978
12.9798
14.0619
14.4491
15.7701
12.4936
0.0656748
0.0684961
0.0686333
0.0701366
0.0729522
0.0761914
0.0797274
0.0836481
0.0879127
0.0924895
0.0974482
0.102903
0.108935
0.115561
0.122748
0.130446
0.138631
0.147333
0.156622
0.166591
0.177312
0.188832
0.201166
0.21432
0.228313
0.243183
0.258986
0.275792
0.293675
0.312718
0.333019
0.354691
0.377876
0.402725
0.429397
0.45805
0.488833
0.52188
0.557321
0.59528
0.635889
0.679291
0.725647
0.775144
0.82799
0.88442
0.944698
1.00911
1.07796
1.15159
1.23036
1.31465
1.40486
1.50143
1.60482
1.71553
1.83409
1.96108
2.09711
2.24286
2.39906
2.5665
2.74606
2.93869
3.14544
3.36748
3.6061
3.86272
4.13897
4.43665
4.75777
5.10462
5.47982
5.8863
6.32742
6.80702
7.32946
7.89974
8.52335
9.20683
9.95573
10.7798
11.6747
12.6684
13.6725
14.8651
15.5432
16.9696
14.3438
0.062931
0.0653218
0.0656626
0.0670864
0.0696423
0.0726459
0.0759781
0.0797057
0.0837948
0.0882089
0.0929955
0.0982514
0.104059
0.110453
0.117425
0.124939
0.132973
0.14154
0.150695
0.16052
0.171092
0.18247
0.194688
0.207762
0.221716
0.236588
0.252434
0.269326
0.287341
0.306566
0.327094
0.349038
0.372531
0.397723
0.424776
0.453856
0.485128
0.518747
0.554859
0.593607
0.635131
0.679579
0.727116
0.777923
0.832207
0.890203
0.95217
1.0184
1.0892
1.16493
1.24595
1.33265
1.42546
1.52484
1.63125
1.74522
1.86729
1.99807
2.13819
2.28834
2.44928
2.62184
2.80692
3.00551
3.21871
3.44772
3.69391
3.95877
4.24399
4.55148
4.88337
5.24211
5.63046
6.05159
6.50914
7.00729
7.55086
8.14543
8.79731
9.51403
10.303
11.175
12.1319
13.1984
14.3158
15.6155
16.569
18.1038
16.3702
0.0597993
0.06176
0.0622589
0.0636159
0.0659327
0.0687054
0.0718307
0.0753583
0.0792616
0.0835041
0.0881151
0.0931711
0.0987496
0.104899
0.111629
0.118925
0.12677
0.135171
0.144167
0.153827
0.164226
0.175432
0.187491
0.200436
0.214295
0.22911
0.244937
0.261846
0.279921
0.29925
0.319929
0.342068
0.365794
0.391254
0.418609
0.448031
0.479695
0.513774
0.550432
0.589827
0.632115
0.677452
0.726007
0.777962
0.833521
0.892916
0.956404
1.02428
1.09685
1.17448
1.25754
1.34645
1.44163
1.54356
1.65274
1.7697
1.895
2.02927
2.17317
2.3274
2.49275
2.67008
2.86031
3.06447
3.2837
3.51925
3.77254
4.04512
4.33877
4.65548
4.9975
5.36739
5.76811
6.20302
6.67602
7.1916
7.75501
8.37239
9.05079
9.79869
10.6251
11.5423
12.557
13.6926
14.9154
16.3201
17.5308
19.1774
18.3571
0.0562698
0.0578215
0.0584328
0.0597297
0.0618282
0.0643768
0.0672932
0.0706138
0.0743195
0.0783785
0.082805
0.0876571
0.0930029
0.0988955
0.105362
0.112406
0.120023
0.128219
0.137023
0.14649
0.15669
0.167692
0.179553
0.192318
0.206026
0.220721
0.236461
0.253319
0.271377
0.290728
0.311472
0.333718
0.357591
0.383232
0.410804
0.440476
0.472431
0.506857
0.543931
0.58383
0.626722
0.672778
0.722173
0.775092
0.831739
0.892341
0.957156
1.02647
1.1006
1.17991
1.26479
1.35564
1.45293
1.55714
1.66878
1.7884
1.9166
2.054
2.20128
2.35919
2.52852
2.71015
2.90504
3.11425
3.33895
3.58044
3.84016
4.11976
4.42107
4.74615
5.09735
5.47739
5.88933
6.33673
6.82372
7.3551
7.9365
8.57455
9.277
10.0532
10.9137
11.8719
12.9394
14.139
15.4577
16.9647
18.4098
20.1851
20.0659
0.0523395
0.05352
0.0541994
0.0554372
0.057337
0.0596705
0.0623779
0.0654852
0.0689816
0.0728418
0.0770712
0.0817109
0.0868176
0.0924445
0.0986298
0.105393
0.112744
0.120693
0.129266
0.138507
0.148477
0.159243
0.170866
0.183404
0.196904
0.211418
0.227006
0.243742
0.261709
0.281002
0.301725
0.323988
0.347918
0.373653
0.401352
0.431184
0.463336
0.498002
0.535373
0.575642
0.618993
0.66561
0.715677
0.769384
0.826937
0.888564
0.954517
1.02508
1.10058
1.18137
1.26784
1.36042
1.45958
1.56582
1.67965
1.80167
1.93246
2.07268
2.22304
2.38428
2.55723
2.7428
2.94195
3.15579
3.38551
3.63246
3.89813
4.1842
4.49257
4.82538
5.18508
5.57446
5.99676
6.45569
6.95558
7.50152
8.09945
8.75645
9.48091
10.2829
11.1743
12.1699
13.2847
14.5421
15.9451
17.5451
19.1926
21.0902
21.7814
0.0480053
0.0488688
0.0495767
0.0507518
0.0524707
0.054599
0.0570983
0.0599874
0.0632627
0.0669072
0.0709222
0.0753359
0.0801933
0.085544
0.0914314
0.0978885
0.104938
0.1126
0.120899
0.129873
0.139575
0.150067
0.161414
0.173677
0.186914
0.201186
0.216555
0.233096
0.250894
0.270048
0.290662
0.312852
0.336744
0.362476
0.390202
0.420096
0.452345
0.487145
0.5247
0.565212
0.608881
0.655904
0.706477
0.760797
0.819075
0.881536
0.948435
1.02006
1.09672
1.17878
1.26663
1.36072
1.46152
1.56953
1.68531
1.80944
1.94255
2.08529
2.2384
2.40265
2.57888
2.768
2.97104
3.1891
3.42341
3.67534
3.94645
4.23845
4.55329
4.89319
5.26066
5.65861
6.0904
6.55986
7.07152
7.63068
8.2436
8.91773
9.66196
10.4871
11.406
12.4347
13.591
14.8996
16.3755
18.0595
19.8773
21.8948
23.2088
0.0432777
0.0438867
0.0445876
0.0456918
0.0472445
0.0491775
0.0514704
0.054137
0.0571801
0.0605912
0.0643712
0.0685395
0.0731317
0.0781917
0.083765
0.0898928
0.096609
0.103943
0.111922
0.120584
0.129974
0.140149
0.151173
0.163111
0.17603
0.189995
0.205074
0.221345
0.238895
0.257822
0.278233
0.300248
0.323996
0.349616
0.377262
0.407106
0.439336
0.474151
0.511761
0.552377
0.596212
0.643474
0.694371
0.749107
0.807899
0.870976
0.93859
1.01102
1.0886
1.17167
1.26064
1.35595
1.45808
1.56756
1.68494
1.81083
1.94586
2.09072
2.24614
2.41292
2.59192
2.78406
2.99039
3.21203
3.45024
3.70643
3.98215
4.27918
4.59952
4.94543
5.31949
5.72469
6.16446
6.64277
7.16429
7.7345
8.35991
9.04827
9.80891
10.6532
11.5948
12.6508
13.8414
15.1924
16.7281
18.4847
20.4407
22.5766
24.3371
0.0381677
0.0385912
0.0392568
0.0402798
0.0416775
0.0434237
0.0455114
0.0479523
0.0507536
0.0539144
0.0574372
0.0613372
0.0656428
0.0703933
0.0756341
0.0814106
0.087765
0.0947343
0.102352
0.110655
0.119685
0.129496
0.140149
0.151713
0.164256
0.177853
0.192575
0.208503
0.225725
0.244341
0.26446
0.286204
0.309708
0.33511
0.36257
0.392255
0.424356
0.459075
0.496622
0.537221
0.581091
0.628451
0.679517
0.734504
0.793633
0.857137
0.925269
0.998313
1.07659
1.16046
1.25032
1.34663
1.44987
1.56057
1.67932
1.80671
1.94341
2.09011
2.24756
2.41658
2.59803
2.79287
3.00215
3.22702
3.46876
3.72881
4.00874
4.31036
4.63572
4.98714
5.36724
5.77908
6.22619
6.71263
7.24321
7.82357
8.46039
9.1617
9.9372
10.7987
11.7606
12.8407
14.0609
15.4486
17.0338
18.8509
20.9119
23.1471
25.2808
0.0327055
0.0330059
0.0336127
0.0345426
0.0357929
0.0373581
0.0392408
0.0414525
0.0440033
0.0468975
0.0501404
0.0537453
0.0577377
0.0621542
0.0670392
0.072441
0.0784062
0.0849766
0.0921909
0.100087
0.108706
0.118101
0.12833
0.139464
0.151575
0.164739
0.179034
0.194542
0.211354
0.229571
0.249306
0.270681
0.293833
0.318907
0.346061
0.37547
0.407322
0.441822
0.479184
0.519638
0.563409
0.610723
0.661804
0.716872
0.776155
0.839889
0.908331
0.981767
1.06052
1.14495
1.23547
1.33253
1.43662
1.5483
1.66814
1.79676
1.93484
2.08309
2.24226
2.41319
2.59675
2.79392
3.00577
3.23346
3.47829
3.74172
4.02537
4.33105
4.66087
5.01715
5.40261
5.82034
6.27392
6.76752
7.30604
7.89521
8.54192
9.25435
10.0425
10.9183
11.8969
12.9965
14.24
15.6556
17.2771
19.1382
21.2688
23.5743
25.8707
0.0269216
0.0271537
0.0276862
0.0285121
0.0296184
0.0310048
0.0326798
0.034657
0.0369481
0.0395596
0.0424982
0.0457786
0.0494263
0.0534781
0.0579787
0.0629779
0.0685239
0.0746612
0.0814303
0.0888706
0.0970252
0.105945
0.115691
0.126332
0.137946
0.150609
0.164401
0.179407
0.19572
0.213441
0.232686
0.253582
0.276266
0.300886
0.327605
0.3566
0.388063
0.4222
0.459234
0.499392
0.542906
0.590006
0.64092
0.695872
0.755093
0.818821
0.887318
0.960871
1.03981
1.1245
1.21534
1.31282
1.41742
1.5297
1.65026
1.77971
1.91874
2.06807
2.22847
2.40078
2.58589
2.78477
2.99852
3.2283
3.47543
3.74138
4.02777
4.33648
4.66959
5.02945
5.41881
5.84082
6.29906
6.79775
7.34182
7.93712
8.59055
9.31042
10.1068
10.9918
11.9806
13.0919
14.3488
15.7797
17.42
19.3036
21.4682
23.8144
26.149
0.0208615
0.021057
0.0215041
0.0222172
0.023178
0.0243814
0.0258409
0.0275746
0.0295932
0.0319017
0.034508
0.03743
0.0406968
0.0443478
0.0484303
0.052994
0.0580872
0.0637535
0.0700332
0.0769658
0.0845963
0.0929788
0.102176
0.112261
0.123308
0.135396
0.148607
0.163026
0.178746
0.195872
0.214522
0.234824
0.25692
0.280964
0.307118
0.335564
0.366499
0.400137
0.4367
0.476421
0.519531
0.566264
0.616847
0.671506
0.730472
0.793987
0.862315
0.935748
1.01462
1.09931
1.19022
1.28785
1.39268
1.50529
1.62627
1.75626
1.89595
2.04606
2.20738
2.38074
2.56705
2.7673
2.98256
3.21404
3.46306
3.7311
4.01978
4.33101
4.66687
5.02977
5.42245
5.84807
6.31025
6.81327
7.36208
7.96253
8.62161
9.34764
10.1507
11.0431
12.04
13.1599
14.4262
15.8669
17.5172
19.4093
21.58
23.9234
26.2136
0.0145644
0.0147337
0.01509
0.0156845
0.0164929
0.017503
0.0187352
0.0202117
0.0219393
0.0239188
0.0261595
0.0286845
0.0315299
0.0347409
0.0383676
0.0424594
0.0470609
0.052212
0.0579502
0.0643164
0.0713588
0.0791353
0.0877138
0.0971682
0.107574
0.119009
0.131551
0.145286
0.16031
0.176732
0.19467
0.214257
0.235636
0.258964
0.284412
0.312165
0.342425
0.375413
0.411356
0.450484
0.493031
0.539227
0.589297
0.643464
0.701959
0.765028
0.832936
0.905986
0.984518
1.06892
1.15961
1.25708
1.36184
1.47446
1.59556
1.72576
1.86577
2.01631
2.17818
2.35221
2.53932
2.74051
2.95685
3.18956
3.43996
3.70954
3.99996
4.3131
4.65108
5.01631
5.41156
5.83997
6.3052
6.81153
7.36394
7.96827
8.6315
9.36196
10.1697
11.067
12.0687
13.1933
14.4635
15.9067
17.5559
19.4396
21.5859
23.8754
26.0895
0.00809258
0.00821359
0.00847775
0.008952
0.00959778
0.0104002
0.0113909
0.0125942
0.0140086
0.0156286
0.0174667
0.0195552
0.02194
0.0246737
0.0278088
0.0313916
0.0354601
0.0400474
0.0451885
0.0509254
0.0573126
0.0644155
0.0723061
0.0810583
0.0907454
0.101441
0.113222
0.126174
0.140396
0.155996
0.173101
0.191843
0.21237
0.234842
0.259437
0.286347
0.315783
0.347968
0.383129
0.421501
0.463309
0.508777
0.558126
0.611574
0.669351
0.731704
0.798907
0.871269
0.949141
1.03292
1.12304
1.22
1.32432
1.43658
1.55738
1.68738
1.82726
1.97776
2.13966
2.31382
2.50115
2.70264
2.91938
3.15257
3.40355
3.6738
3.96499
4.279
4.61794
4.98421
5.38057
5.81017
6.27665
6.78426
7.3379
7.9434
8.60765
9.33886
10.1469
11.0438
12.044
13.1653
14.4295
15.862
17.4927
19.3452
21.4329
23.6303
25.6831
0.00149989
0.00153001
0.0017081
0.00206371
0.00253282
0.00311004
0.0038436
0.00475533
0.0058296
0.00705575
0.00845293
0.0100661
0.0119539
0.0141767
0.0167871
0.0198239
0.0233154
0.0272871
0.0317716
0.0368163
0.0424843
0.0488485
0.0559847
0.0639656
0.0728585
0.0827316
0.09366
0.10573
0.119043
0.133711
0.149861
0.167632
0.187175
0.208658
0.232264
0.258194
0.286669
0.317911
0.352151
0.389613
0.430517
0.475078
0.523507
0.576021
0.632848
0.69424
0.760478
0.831884
0.908822
0.991699
1.08097
1.17713
1.28071
1.3923
1.5125
1.64197
1.78139
1.9315
2.09309
2.26699
2.45413
2.6555
2.87218
3.10538
3.35643
3.62682
3.9182
4.23245
4.57166
4.93825
5.33494
5.76486
6.23162
6.73939
7.29305
7.89831
8.56194
9.29197
10.098
10.9916
11.9868
13.1004
14.3526
15.7667
17.3673
19.1735
21.1753
23.2567
25.0123
-0.00515224
-0.00527808
-0.00517396
-0.00493451
-0.00466105
-0.00432995
-0.00387148
-0.00327401
-0.00257107
-0.00177706
-0.00086089
0.000239825
0.00159785
0.00327898
0.00533164
0.00778297
0.0106488
0.0139472
0.0177122
0.0220007
0.0268868
0.0324507
0.0387691
0.0459083
0.0539286
0.0628921
0.0728719
0.0839565
0.0962488
0.109867
0.124942
0.141614
0.160039
0.180395
0.202877
0.227695
0.25507
0.285228
0.318393
0.354782
0.394603
0.438058
0.485351
0.536694
0.592318
0.652482
0.71748
0.787648
0.863362
0.945044
1.03316
1.12821
1.23075
1.34134
1.46061
1.5892
1.7278
1.87713
2.038
2.21123
2.39773
2.59849
2.81462
3.04729
3.29786
3.56778
3.85871
4.17252
4.51128
4.87737
5.27352
5.7028
6.16877
6.67553
7.22788
7.83142
8.49272
9.21956
10.0212
10.9088
11.8955
12.9971
14.2317
15.6203
17.1809
18.929
20.823
22.7802
24.1869
-0.0118165
-0.0121708
-0.0121192
-0.0119944
-0.0119408
-0.0118797
-0.0117169
-0.01146
-0.0111641
-0.0108424
-0.0104458
-0.00989162
-0.00909316
-0.0079823
-0.00652134
-0.00469829
-0.00251215
5.13641e-05
0.00303401
0.0065055
0.0105513
0.015257
0.0206949
0.0269217
0.0339881
0.0419508
0.0508823
0.0608746
0.0720341
0.0844831
0.0983537
0.113794
0.130971
0.150071
0.171296
0.194866
0.221006
0.249937
0.281872
0.317011
0.35555
0.397679
0.443594
0.493506
0.547653
0.606303
0.669766
0.738392
0.812573
0.892746
0.979384
1.073
1.17413
1.28337
1.40132
1.52862
1.66596
1.81407
1.97371
2.14574
2.33104
2.53061
2.74554
2.977
3.22632
3.49496
3.78456
4.09697
4.43423
4.7987
5.19302
5.62024
6.08384
6.58783
7.13686
7.73636
8.39267
9.11328
9.90699
10.7843
11.7574
12.8408
14.0503
15.4045
16.913
18.5915
20.3573
22.1897
23.17
-0.0184397
-0.0191016
-0.0190743
-0.0190663
-0.0192629
-0.0194988
-0.0196544
-0.0197686
-0.0199187
-0.02011
-0.0202695
-0.0202917
-0.0200787
-0.0195669
-0.018734
-0.0175878
-0.0161393
-0.0143729
-0.0122328
-0.00963475
-0.00648157
-0.00268758
0.00180848
0.00705079
0.0130798
0.0199483
0.0277319
0.036524
0.0464374
0.0575966
0.0701407
0.0842246
0.100027
0.117744
0.137595
0.159799
0.184576
0.212139
0.242684
0.276396
0.313452
0.354033
0.398329
0.446558
0.498963
0.555831
0.617487
0.684295
0.756669
0.835053
0.919928
1.01181
1.11125
1.21881
1.33511
1.46078
1.59651
1.743
1.90102
2.07142
2.25508
2.45298
2.66621
2.89593
3.14346
3.41023
3.69787
4.00818
4.34321
4.70524
5.09687
5.52109
5.98127
6.48129
7.02566
7.6196
8.26919
8.98152
9.76488
10.629
11.5851
12.6462
13.8254
15.1388
16.5865
18.1872
19.807
21.5106
22.028
-0.0249805
-0.0260239
-0.0259849
-0.0261011
-0.0265843
-0.0271461
-0.0276463
-0.0281659
-0.0288031
-0.0295475
-0.0302963
-0.0309216
-0.0313187
-0.0314355
-0.0312717
-0.0308561
-0.0302062
-0.0292978
-0.0280573
-0.0263813
-0.0241683
-0.0213391
-0.017848
-0.0136669
-0.00876318
-0.00308461
0.00344608
0.0109288
0.0194797
0.0292277
0.0403202
0.0529252
0.0672335
0.0834558
0.101815
0.122532
0.145817
0.171864
0.200848
0.232936
0.268289
0.30708
0.349502
0.395779
0.446171
0.500982
0.560552
0.62527
0.695554
0.771864
0.854686
0.944535
1.04196
1.14752
1.26182
1.3855
1.51922
1.66369
1.81968
1.988
2.16955
2.36529
2.5763
2.80372
3.04887
3.31316
3.59818
3.9057
4.23774
4.59652
4.98457
5.40479
5.86045
6.35532
6.8937
7.48058