/*--------------------------------*- C++ -*----------------------------------*\
  =========                 |
  \\      /  F ield         | OpenFOAM: The Open Source CFD Toolbox
   \\    /   O peration     | Website:  https://openfoam.org
    \\  /    A nd           | Version:  11
     \\/     M anipulation  |
\*---------------------------------------------------------------------------*/
FoamFile
{
    format      ascii;
    class       volScalarField;
    location    "50";
    object      p;
}
// * * * * * * * * * * * * * * * * * * * * * * * * * * * * * * * * * * * * * //

dimensions      [0 2 -2 0 0 0 0];

internalField   nonuniform List<scalar> 
31595
(
7.50125
5.5584
5.93273
6.43627
6.87633
7.22836
7.68253
8.12313
8.57894
9.03943
9.51435
10.0057
10.5195
11.0562
11.6144
12.1926
12.7889
13.4025
14.033
14.682
15.3509
16.0425
16.7587
17.5025
18.2755
19.0794
19.9147
20.7819
21.6807
22.6112
23.574
24.57
25.6007
26.6677
27.7732
28.919
30.1076
31.3405
32.6197
33.9461
35.3218
36.7478
38.2264
39.7604
41.3538
43.009
44.7334
46.5292
48.4022
50.3556
52.3929
54.5192
56.7383
59.0553
61.4736
64.0021
66.6434
69.4085
72.301
75.3328
78.5093
81.8435
85.3425
89.0156
92.8724
96.9288
101.195
105.684
110.409
115.392
120.649
126.2
132.067
138.271
144.837
151.796
159.178
167.009
175.322
184.144
193.499
203.404
213.861
224.797
236.178
247.675
259.086
268.794
278.022
6.54464
5.94239
5.80543
6.41544
6.85983
7.23008
7.65933
8.10463
8.5529
9.00792
9.47383
9.95511
10.4574
10.983
11.5316
12.1012
12.6901
13.2968
13.9207
14.5624
15.2235
15.9062
16.6129
17.3464
18.1089
18.9025
19.7283
20.5868
21.4781
22.4024
23.3597
24.3505
25.376
26.4375
27.5372
28.677
29.8592
31.0856
32.3585
33.6793
35.0503
36.4732
37.9503
39.4844
41.0788
42.7371
44.4641
46.2638
48.1407
50.0989
52.1424
54.2761
56.5042
58.8317
61.2634
63.806
66.4651
69.2487
72.1636
75.2188
78.4227
81.7858
85.3175
89.0274
92.9265
97.029
101.347
105.895
110.688
115.745
121.085
126.73
132.703
139.027
145.731
152.845
160.401
168.432
176.973
186.054
195.706
205.949
216.786
228.15
240.005
251.986
263.869
274.079
283.446
6.12687
6.00674
5.80504
6.36681
6.83499
7.20801
7.62211
8.06164
8.50343
8.95001
9.4055
9.87459
10.3634
10.8758
11.4124
11.9716
12.5513
13.1498
13.7658
14.3994
15.0516
15.7244
16.4204
17.1424
17.8929
18.6743
19.4883
20.336
21.2177
22.1333
23.0829
24.0666
25.0852
26.1396
27.2318
28.3636
29.5374
30.7551
32.0193
33.332
34.6955
36.112
37.584
39.1145
40.7065
42.3636
44.0899
45.8895
47.7667
49.7258
51.7714
53.908
56.1405
58.4738
60.9133
63.4653
66.1361
68.9332
71.8641
74.9376
78.1623
81.5486
85.1065
88.8468
92.781
96.9226
101.285
105.884
110.736
115.859
121.276
127.007
133.078
139.514
146.347
153.608
161.332
169.557
178.32
187.658
197.607
208.191
219.419
231.231
243.592
256.109
268.551
279.304
288.435
6.01039
6.03418
5.82734
6.33354
6.80815
7.17913
7.57989
8.00999
8.44445
8.88217
9.3271
9.78386
10.2588
10.7572
11.2804
11.8277
12.3968
12.9856
13.5926
14.2171
14.8597
15.5222
16.2069
16.9166
17.6542
18.4223
19.2231
20.058
20.9278
21.8326
22.7724
23.747
24.757
25.8029
26.8863
28.0092
29.1734
30.3815
31.6359
32.9391
34.2935
35.7016
37.1662
38.6901
40.2766
41.9291
43.6515
45.4478
47.3223
49.2794
51.3238
53.4601
55.6934
58.0289
60.4722
63.0294
65.7074
68.5135
71.4554
74.542
77.7823
81.1864
84.765
88.5292
92.4915
96.6656
101.066
105.708
110.61
115.791
121.274
127.082
133.24
139.778
146.728
154.126
162.008
170.415
179.39
188.976
199.214
210.135
221.757
234.026
246.913
260.008
273.1
284.437
293.248
5.9675
6.07239
5.85473
6.3088
6.77647
7.14122
7.52683
7.94456
8.36954
8.79734
9.23103
9.6748
10.1351
10.6181
11.1264
11.6599
12.2166
12.7943
13.391
14.0055
14.6379
15.2893
15.9621
16.6589
17.3827
18.1363
18.9222
19.7424
20.598
21.4895
22.4171
23.3804
24.3797
25.4154
26.4886
27.6009
28.7544
29.9514
31.1945
32.4863
33.8295
35.2268
36.6812
38.1957
39.7736
41.4182
43.1334
44.9232
46.7918
48.7437
50.7836
52.9161
55.1467
57.4806
59.9237
62.4822
65.163
67.9737
70.9222
74.0172
77.2682
80.6853
84.2796
88.0628
92.0478
96.2487
100.681
105.36
110.306
115.539
121.082
126.96
133.2
139.834
146.895
154.423
162.457
171.043
180.228
190.061
200.59
211.854
223.88
236.625
250.066
263.783
277.596
289.616
299.328
5.95756
6.11859
5.88572
6.28747
6.74026
7.09529
7.46424
7.86737
8.28096
8.69777
9.1196
9.55
9.99519
10.4619
10.9541
11.4723
12.015
12.58
13.1651
13.7685
14.3898
15.0296
15.6899
16.3732
17.0824
17.8205
18.5904
19.3942
20.2337
21.1097
22.0226
22.9723
23.9588
24.9822
26.0435
27.1438
28.285
29.4694
30.6996
31.9783
33.3084
34.6928
36.1346
37.6369
39.2032
40.8368
42.5416
44.3216
46.181
48.1242
50.156
52.2814
54.5054
56.8338
59.2725
61.8281
64.5072
67.3177
70.2678
73.3661
76.6224
80.0471
83.6515
87.4477
91.449
95.6701
100.127
104.836
109.819
115.095
120.689
126.628
132.94
139.66
146.823
154.47
162.646
171.4
180.784
190.855
201.667
213.269
225.699
238.926
252.934
267.304
281.87
294.664
305.485
5.95062
6.15747
5.9146
6.26452
6.69692
7.03973
7.39077
7.77731
8.1777
8.58235
8.99167
9.40835
9.83805
10.2878
10.7627
11.2641
11.7912
12.3419
12.9138
13.5048
14.114
14.7415
15.3886
16.0578
16.7518
17.4736
18.2263
19.0124
19.8339
20.6923
21.5882
22.5218
23.493
24.502
25.5492
26.6356
27.7629
28.933
30.1486
31.4124
32.7273
34.0964
35.523
37.0104
38.5619
40.1812
41.8722
43.6387
45.4852
47.4158
49.4356
51.5496
53.7629
56.0814
58.5112
61.0587
63.731
66.5359
69.4817
72.5774
75.8327
79.2583
82.8657
86.6675
90.6774
94.9101
99.3827
104.113
109.121
114.43
120.064
126.051
132.423
139.214
146.464
154.215
162.516
171.42
180.986
191.276
202.355
214.279
227.1
240.803
255.383
270.432
285.794
299.407
310.859
5.93717
6.18127
5.93596
6.23613
6.64425
6.9731
7.30557
7.67403
8.05961
8.45098
8.84716
9.24985
9.66394
10.0965
10.5532
11.0367
11.5466
12.0813
12.6384
13.2157
13.8116
14.4257
15.059
15.7134
16.3916
17.0964
17.831
18.5982
19.4004
20.2393
21.116
22.031
22.9845
23.9766
25.0074
26.0778
27.1891
28.3432
29.5424
30.7893
32.087
33.4387
34.8477
36.3173
37.8512
39.4531
41.1268
42.8763
44.7061
46.6204
48.6243
50.7226
52.9209
55.225
57.6409
60.1755
62.8358
65.6297
68.5654
71.6523
74.9003
78.32
81.9234
85.7233
89.7335
93.9696
98.4488
103.19
108.214
113.543
119.205
125.228
131.645
138.493
145.813
153.65
162.058
171.093
180.821
191.308
202.631
214.856
228.051
242.218
257.368
273.117
289.317
303.805
315.762
5.91108
6.18415
5.94451
6.1988
6.58007
6.89373
7.20744
7.55682
7.92621
8.30329
8.6857
9.07417
9.47261
9.88774
10.3258
10.7904
11.2819
11.7991
12.3398
12.9017
13.483
14.0829
14.7015
15.3405
16.0022
16.6894
17.4053
18.1527
18.9342
19.752
20.6076
21.5019
22.4352
23.4079
24.4201
25.4723
26.5657
27.7017
28.8826
30.111
31.3897
32.7219
34.111
35.5606
37.0742
38.6558
40.3092
42.0385
43.8482
45.7428
47.7271
49.8063
51.9857
54.2714
56.6695
59.1868
61.8304
64.6085
67.5295
70.6026
73.838
77.2464
80.8399
84.6318
88.6364
92.8694
97.3483
102.093
107.124
112.467
118.148
124.197
130.65
137.544
144.922
152.835
161.337
170.491
180.366
191.039
202.593
215.109
228.669
243.295
259.018
275.484
292.548
307.974
321.087
5.87009
6.1635
5.93653
6.14972
6.50264
6.80025
7.09532
7.42503
7.77714
8.13894
8.50695
8.88096
9.2638
9.66161
10.0809
10.5258
10.9978
11.4961
12.0188
12.5638
13.1291
13.7133
14.3163
14.9391
15.5837
16.2527
16.9492
17.6759
18.4358
19.2312
20.064
20.9356
21.8465
22.7973
23.7883
24.8199
25.893
27.0089
28.1696
29.3773
30.6349
31.9456
33.3126
34.7397
36.2305
37.7889
39.419
41.125
42.9112
44.7824
46.7433
48.7993
50.9558
53.2188
55.5945
58.0899
60.7122
63.4695
66.3704
69.424
72.6409
76.0319
79.6093
83.3863
87.3779
91.6001
96.0707
100.81
105.84
111.185
116.874
122.939
129.414
136.34
143.763
151.734
160.314
169.567
179.57
190.406
202.169
214.951
228.852
243.916
260.194
277.372
295.293
311.705
326.013
5.81263
6.11794
5.90928
6.08663
6.41057
6.69148
6.96825
7.27805
7.61202
7.95766
8.31062
8.66985
9.03717
9.41781
9.81822
10.2432
10.6948
11.173
11.6763
12.2028
12.7504
13.3176
13.9038
14.5095
15.1362
15.7863
16.4625
17.1679
17.9053
18.6771
19.4856
20.3325
21.219
22.1456
23.1128
24.1212
25.1714
26.2647
27.4027
28.5876
29.8219
31.1087
32.4513
33.8533
35.3185
36.8508
38.4543
40.1334
41.8925
43.7363
45.6698
47.6982
49.8271
52.0626
54.4108
56.879
59.4742
62.2047
65.079
68.1067
71.2979
74.664
78.2173
81.9711
85.9403
90.1417
94.5935
99.3159
104.332
109.666
115.349
121.412
127.892
134.832
142.277
150.284
158.914
168.238
178.336
189.3
201.233
214.24
228.436
243.893
260.686
278.548
297.312
314.747
329.978
5.73849
6.04737
5.86105
6.00783
6.30284
6.56661
6.82553
7.11545
7.43067
7.75936
8.09664
8.44075
8.79251
9.15622
9.53794
9.94281
10.3735
10.8306
11.3133
11.8197
12.3481
12.8969
13.4649
14.0523
14.6602
15.2906
15.946
16.6292
17.3432
18.0904
18.8735
19.6942
20.5542
21.4543
22.3954
23.3779
24.4028
25.4709
26.5838
27.7433
28.952
30.2126
31.5284
32.9029
34.3398
35.8431
37.417
39.0659
40.7943
42.607
44.509
46.5056
48.6025
50.8056
53.1216
55.5571
58.1198
60.8176
63.6593
66.6545
69.8135
73.1473
76.6686
80.3908
84.3293
88.5005
92.9229
97.6176
102.607
107.918
113.58
119.627
126.095
133.028
140.475
148.494
157.148
166.513
176.675
187.73
199.791
212.978
227.422
243.221
260.476
278.983
298.57
317.069
333.12
5.64753
5.95223
5.79082
5.91211
6.17877
6.42508
6.66666
6.93694
7.23303
7.54415
7.86513
8.19371
8.52986
8.87683
9.24013
9.62494
10.0345
10.4699
10.9308
11.416
11.9237
12.4524
13.0009
13.5689
14.1569
14.7668
15.4006
16.061
16.7509
17.4727
18.2293
19.0227
19.8545
20.7264
21.6391
22.5936
23.5906
24.6311
25.7165
26.8485
28.0293
29.2615
30.5484
31.8931
33.2995
34.7716
36.3134
37.9294
39.6243
41.4028
43.2701
45.2315
47.2928
49.46
51.7396
54.1387
56.6645
59.3255
62.1301
65.088
68.2096
71.5063
74.9904
78.6756
82.5773
86.7123
91.0992
95.7592
100.716
105.995
111.628
117.648
124.094
131.011
138.449
146.466
155.131
164.521
174.727
185.854
198.021
211.36
226.02
242.126
259.806
278.916
299.283
318.825
335.681
5.53999
5.83346
5.69813
5.79861
6.0379
6.26658
6.49133
6.74237
7.01914
7.31215
7.61622
7.92882
8.24917
8.57953
8.92465
9.28957
9.67787
10.0912
10.5295
10.9922
11.4779
11.9851
12.5125
13.0597
13.6267
14.215
14.8263
15.463
16.1279
16.8235
17.5526
18.3173
19.1197
19.9614
20.8438
21.7678
22.7344
23.7447
24.7999
25.9017
27.052
28.2534
29.5086
30.8211
32.1943
33.6323
35.139
36.7191
38.3771
40.1178
41.9465
43.8686
45.8899
48.0166
50.255
52.6122
55.0958
57.7139
60.4753
63.3895
66.467
69.719
73.1582
76.7981
80.654
84.7432
89.0841
93.6983
98.6095
103.844
109.434
115.412
121.818
128.698
136.104
144.095
152.743
162.127
172.342
183.498
195.723
209.161
223.975
240.317
258.342
277.975
299.052
319.596
336.918
5.41599
5.69214
5.58294
5.66684
5.88004
6.09101
6.29941
6.53172
6.78917
7.06369
7.35033
7.64641
7.95066
8.26442
8.59157
8.93682
9.30388
9.69476
10.11
10.5493
11.0117
11.496
12.0009
12.5258
13.0705
13.636
14.2239
14.836
15.4751
16.1435
16.8441
17.579
18.3506
19.1606
20.0107
20.9021
21.836
22.8134
23.8358
24.9046
26.0217
27.1894
28.4104
29.6878
31.0252
32.4261
33.8949
35.4357
37.0535
38.7529
40.5392
42.4178
44.3947
46.4759
48.6681
50.9782
53.4139
55.9832
58.6949
61.5586
64.5844
67.7842
71.1702
74.7559
78.5567
82.5896
86.8734
91.4297
96.2818
101.457
106.986
112.904
119.251
126.072
133.42
141.358
149.954
159.294
169.475
180.611
192.835
206.302
221.187
237.666
255.92
275.941
297.594
319.044
336.826
5.27591
5.52964
5.44555
5.51654
5.70518
5.89851
6.09102
6.30517
6.54347
6.79928
7.06805
7.34711
7.63488
7.93192
8.24122
8.56701
8.91293
9.28134
9.67313
10.0883
10.5264
10.9865
11.4675
11.9688
12.4899
13.0314
13.5946
14.1812
14.7936
15.4341
16.1052
16.8094
17.549
18.326
19.1422
19.9991
20.8981
21.8404
22.8275
23.8607
24.9421
26.0736
27.2578
28.4977
29.7966
31.158
32.5861
34.0851
35.6596
37.3146
39.0552
40.8871
42.8159
44.8479
46.9897
49.2483
51.6314
54.147
56.8039
59.6116
62.5803
65.7219
69.0481
72.5727
76.3113
80.2802
84.4987
88.988
93.7718
98.877
104.335
110.18
116.453
123.199
130.473
138.335
146.858
156.128
166.242
177.321
189.5
202.942
217.833
234.366
252.74
273.003
295.015
317.06
335.549
5.11984
5.34729
5.28649
5.34771
5.51346
5.68935
5.86641
6.06302
6.28245
6.51948
6.77002
7.03158
7.30242
7.58248
7.87396
8.18043
8.50533
8.85123
9.21931
9.60996
10.023
10.4578
10.9136
11.3898
11.8859
12.4022
12.9396
13.4996
14.0843
14.6958
15.3366
16.009
16.7155
17.4582
18.2391
19.0597
19.9219
20.8269
21.7763
22.7715
23.8145
24.9071
26.052
27.2516
28.5093
29.8286
31.2133
32.6676
34.196
35.8035
37.4951
39.2766
41.1536
43.1325
45.2197
47.4224
49.7482
52.2051
54.802
57.5481
60.4541
63.5308
66.7908
70.2476
73.9163
77.8134
81.9581
86.3713
91.0765
96.1009
101.475
107.234
113.419
120.074
127.254
135.021
143.448
152.619
162.637
173.62
185.711
199.075
213.906
230.412
248.803
269.167
291.325
313.652
332.472
4.94795
5.14647
5.1065
5.16048
5.30516
5.46392
5.62592
5.80563
6.00662
6.2249
6.45698
6.7006
6.95402
7.21676
7.49024
7.77741
8.08139
8.40476
8.74895
9.11463
9.50193
9.91054
10.34
10.7898
11.2595
11.7493
12.2596
12.7918
13.3476
13.929
14.5384
15.1781
15.8504
16.5574
17.3014
18.0842
18.9076
19.7732
20.6825
21.6372
22.639
23.69
24.7925
25.949
27.1626
28.4367
29.7748
31.1812
32.6602
34.2167
35.8557
37.5828
39.4038
41.3249
43.3528
45.4944
47.7573
50.1497
52.6802
55.3581
58.1936
61.1981
64.3835
67.7633
71.3525
75.1674
79.2268
83.5514
88.1647
93.0932
98.3672
104.021
110.096
116.637
123.697
131.337
139.632
148.664
158.537
169.368
181.301
194.503
209.174
225.53
243.789
264.062
286.043
308.169
326.189
4.76033
4.92855
4.9065
4.95522
5.08067
5.22278
5.37012
5.53356
5.7166
5.91633
6.12984
6.35517
6.59071
6.83567
7.0909
7.35868
7.64176
7.94258
8.26279
8.60324
8.96432
9.34602
9.74815
10.1704
10.6124
11.0742
11.5563
12.0595
12.5853
13.1356
13.7126
14.3183
14.9552
15.6255
16.3314
17.0749
17.8578
18.682
19.5492
20.461
21.4193
22.4261
23.4836
24.5943
25.7611
26.987
28.2758
29.6314
31.058
32.5604
34.1435
35.8129
37.5742
39.4339
41.3983
43.4745
45.67
47.9929
50.4519
53.0559
55.8154
58.7412
61.8453
65.1409
68.6427
72.3669
76.332
80.5583
85.0686
89.8894
95.0503
100.586
106.535
112.942
119.861
127.351
135.485
144.345
154.032
164.663
176.378
189.343
203.752
219.823
237.753
257.611
278.855
300.301
316.162
4.55699
4.69485
4.68755
4.73244
4.84053
4.96659
5.09967
5.24746
5.4131
5.59457
5.7895
5.9963
6.2135
6.44023
6.67685
6.92505
7.18714
7.46537
7.76146
8.07649
8.41098
8.76518
9.13918
9.53282
9.94592
10.3785
10.831
11.3039
11.7987
12.3168
12.8601
13.4309
14.0314
14.6637
15.3303
16.033
16.774
17.5552
18.3783
19.2452
20.1578
21.1179
22.1279
23.1902
24.3074
25.4826
26.7193
28.0213
29.3926
30.8379
32.3621
33.9707
35.6692
37.4638
39.3611
41.368
43.492
45.7411
48.1238
50.6493
53.3275
56.1692
59.1861
62.3916
65.7996
69.4263
73.2897
77.4096
81.8085
86.5122
91.5499
96.9551
102.766
109.027
115.789
123.111
131.063
139.728
149.202
159.598
171.055
183.733
197.806
213.465
230.817
249.916
269.958
290.55
302.626
4.33811
4.44671
4.45087
4.49285
4.5854
4.69612
4.81533
4.94803
5.09685
5.26041
5.4369
5.62499
5.82346
6.03145
6.24901
6.47729
6.71818
6.97366
7.24549
7.53484
7.84239
8.16861
8.51378
8.87789
9.26097
9.66315
10.0846
10.526
10.9883
11.4729
11.9816
12.5162
13.079
13.6722
14.298
14.9585
15.656
16.3923
17.1694
17.9892
18.8536
19.7646
20.7244
21.7353
22.8
23.9215
25.1028
26.3479
27.6605
29.0453
30.5069
32.0507
33.6822
35.4075
37.2331
39.1658
41.213
43.3827
45.6832
48.1235
50.7134
53.4637
56.3856
59.4921
62.7969
66.3161
70.0667
74.0681
78.3424
82.9143
87.8122
93.069
98.7221
104.814
111.394
118.519
126.258
134.689
143.907
154.016
165.145
177.44
191.036
206.096
222.626
240.782
259.288
278.947
286.027
4.10365
4.18537
4.19778
4.23731
4.31605
4.41227
4.518
4.63617
4.76873
4.91482
5.07305
5.24238
5.42181
5.6106
5.80861
6.01657
6.23594
6.4685
6.71584
6.97928
7.2596
7.55744
7.87319
8.20704
8.55917
8.92977
9.31912
9.72769
10.1563
10.6063
11.0789
11.5762
12.1002
12.653
13.2369
13.8539
14.5063
15.1962
15.9256
16.6964
17.5106
18.3703
19.2775
20.2346
21.2441
22.3089
23.4321
24.6173
25.8683
27.1893
28.5851
30.0608
31.6218
33.2742
35.0242
36.8786
38.8449
40.9306
43.1441
45.494
47.99
50.6426
53.4629
56.4633
59.6574
63.0604
66.6893
70.5627
74.7016
79.1295
83.8741
88.9667
94.444
100.347
106.722
113.622
121.113
129.268
138.175
147.924
158.622
170.396
183.346
197.627
213.158
230.23
246.745
265.311
264.377
3.85409
3.91215
3.92977
3.96689
4.03344
4.11605
4.20872
4.31282
4.42967
4.55873
4.69898
4.84957
5.00975
5.17892
5.35686
5.54403
5.74152
5.95082
6.17344
6.4107
6.66351
6.93258
7.2184
7.52138
7.84173
8.17978
8.53584
8.9104
9.30413
9.71813
10.1537
10.6125
11.0964
11.6076
12.1482
12.7204
13.3265
13.9685
14.6485
15.3687
16.1308
16.937
17.7895
18.6904
19.6422
20.6478
21.7102
22.8327
24.0191
25.2736
26.6005
28.005
29.4924
31.0685
32.7395
34.5121
36.3935
38.3915
40.5139
42.7693
45.1669
47.717
50.4305
53.3195
56.3971
59.6781
63.1791
66.918
70.9148
75.192
79.7755
84.6956
89.9865
95.6869
101.84
108.496
115.71
123.55
132.092
141.416
151.609
162.783
175.011
188.432
202.803
218.606
232.502
249.683
238.001
3.58972
3.62828
3.64841
3.68282
3.73858
3.80854
3.88857
3.97903
4.08064
4.19311
4.31565
4.44762
4.58843
4.73761
4.89498
5.0608
5.23591
5.42157
5.61912
5.82985
6.05477
6.29468
6.55016
6.82165
7.1095
7.41408
7.73578
8.0751
8.43267
8.8094
9.20649
9.62543
10.068
10.5362
11.0322
11.5581
12.1162
12.7087
13.3378
14.0053
14.7134
15.464
16.2593
17.1014
17.9928
18.9363
19.9346
20.9912
22.1097
23.2939
24.5482
25.8776
27.2872
28.7826
30.37
32.056
33.8475
35.7522
37.7778
39.9326
42.2255
44.6662
47.2653
50.0346
52.9866
56.1353
59.4965
63.0873
66.9269
71.0364
75.4404
80.1671
85.2455
90.7117
96.6067
102.977
109.869
117.341
125.461
134.301
143.933
154.443
165.86
178.303
191.294
205.599
216.148
231.797
208.111
3.31153
3.33513
3.35541
3.38652
3.43272
3.49098
3.55883
3.63601
3.72282
3.81908
3.92422
4.0377
4.15908
4.28802
4.42437
4.56833
4.72056
4.8821
5.05418
5.23804
5.43477
5.64516
5.86984
6.10933
6.36405
6.63439
6.92083
7.22389
7.54413
7.8824
8.23974
8.61751
9.01743
9.44133
9.89142
10.3698
10.8786
11.4202
11.9966
12.6099
13.2621
13.9553
14.6914
15.4727
16.3014
17.1802
18.112
19.0999
20.1475
21.2585
22.4372
23.6883
25.0167
26.4282
27.9284
29.5238
31.2212
33.0279
34.9516
37.0001
39.182
41.5069
43.9849
46.6271
49.4451
52.4521
55.6619
59.0906
62.7566
66.6802
70.8841
75.3927
80.2327
85.4369
91.0432
97.0929
103.629
110.702
118.366
126.683
135.701
145.484
155.996
167.356
178.767
191.473
198.055
212.379
171.21
3.02045
3.03398
3.05253
3.07957
3.11717
3.16467
3.22077
3.285
3.35738
3.43777
3.52577
3.62093
3.72288
3.83137
3.94631
4.0679
4.19671
4.33361
4.47977
4.63637
4.8045
4.98501
5.17854
5.38559
5.6066
5.84206
6.09243
6.35822
6.64005
6.93868
7.25508
7.59047
7.94645
8.3248
8.72759
9.15702
9.61534
10.1046
10.627
11.1846
11.7793
12.4131
13.088
13.8061
14.5697
15.3814
16.2438
17.1602
18.1338
19.1684
20.2681
21.4374
22.6812
24.0049
25.4141
26.9148
28.5136
30.217
32.0326
33.9683
36.0325
38.234
40.5826
43.0885
45.7626
48.6171
51.6646
54.9202
58.4012
62.1265
66.1166
70.3934
74.9822
79.912
85.2164
90.9304
97.0908
103.738
110.914
118.663
127.01
135.991
145.492
155.647
165.254
176.21
178.135
191.105
132.357
2.71837
2.72636
2.74164
2.76372
2.79345
2.83102
2.8758
2.92733
2.98555
3.05035
3.12141
3.19835
3.28085
3.3687
3.46187
3.56056
3.66531
3.77699
3.89668
4.02555
4.16464
4.3148
4.47667
4.65075
4.83748
5.03733
5.25076
5.47834
5.72062
5.9783
6.25226
6.54371
6.85416
7.18542
7.53938
7.91829
8.32428
8.75959
9.22613
9.72594
10.2609
10.8328
11.4436
12.0955
12.7906
13.5314
14.3206
15.1611
16.0562
17.0094
18.0249
19.1069
20.2601
21.4897
22.801
24.2
25.6925
27.285
28.9846
30.7991
32.7365
34.8051
37.0138
39.3719
41.8899
44.579
47.4514
50.521
53.8034
57.3156
61.0754
65.1028
69.4207
74.0539
79.0304
84.3792
90.1295
96.3117
102.954
110.082
117.69
125.792
134.176
143.019
150.589
159.7
156.237
168.097
91.0601
2.40707
2.41347
2.42443
2.44069
2.46297
2.49122
2.52496
2.56393
2.60813
2.65747
2.71168
2.7704
2.83332
2.90025
2.97118
3.04637
3.12638
3.21212
3.30468
3.4052
3.51469
3.63395
3.76356
3.90399
4.05565
4.21903
4.39459
4.58281
4.78423
4.9995
5.22948
5.47527
5.73842
6.0206
6.32389
6.65035
7.00216
7.3814
7.78999
8.22979
8.70256
9.21009
9.75427
10.3371
10.9608
11.6275
12.34
13.1009
13.9136
14.7815
15.7085
16.6987
17.7566
18.8872
20.0956
21.3874
22.7686
24.2452
25.8242
27.5127
29.318
31.2479
33.3106
35.515
37.8706
40.3878
43.0778
45.953
49.0271
52.3152
55.8331
59.5985
63.631
67.9516
72.5824
77.546
82.8639
88.5562
94.636
101.112
107.946
115.13
122.34
129.84
135.233
142.594
133.204
144.515
39.9921
2.0892
2.09648
2.10226
2.11205
2.12711
2.14636
2.16913
2.19552
2.22568
2.25953
2.29678
2.3371
2.38016
2.42575
2.47385
2.5248
2.57929
2.63828
2.70296
2.77443
2.85363
2.94129
3.03789
3.14389
3.25966
3.38563
3.52221
3.66983
3.82898
4.00029
4.18453
4.38287
4.59676
4.82808
5.07871
5.35085
5.64648
5.96766
6.31613
6.69375
7.1021
7.54289
8.01791
8.52902
9.07825
9.66784
10.3003
10.9783
11.7051
12.484
13.3186
14.2132
15.1718
16.1994
17.3008
18.4813
19.7467
21.1029
22.556
24.1127
25.7799
27.5647
29.4748
31.5182
33.7038
36.0408
38.5393
41.2102
44.0656
47.1181
50.3818
53.8719
57.6039
61.5945
65.8603
70.4169
75.277
80.4496
85.9312
91.7113
97.7148
103.915
109.85
115.903
118.883
124.34
108.358
118.755
-4.65676
1.76749
1.77664
1.77668
1.77971
1.78767
1.79799
1.80976
1.82349
1.83955
1.85782
1.87798
1.89966
1.9225
1.94622
1.97085
1.99683
2.02501
2.05655
2.09267
2.13446
2.18275
2.23812
2.30103
2.37181
2.45086
2.5385
2.63508
2.74094
2.85649
2.98225
3.11915
3.26836
3.43141
3.61008
3.80646
4.02249
4.26027
4.52151
4.80805
5.12135
5.46299
5.83452
6.23756
6.67388
7.14543
7.65438
8.20316
8.79446
9.43127
10.1169
10.8549
11.649
12.5036
13.4231
14.4122
15.4759
16.6197
17.849
19.1696
20.5876
22.1093
23.7411
25.4902
27.3638
29.3697
31.5161
33.8117
36.2661
38.8895
41.6926
44.6871
47.8851
51.2985
54.939
58.8174
62.9422
67.3168
71.9382
76.785
81.8276
86.9489
92.1104
96.6856
101.24
101.609
105.234
82.1728
92.2283
-52.4765
1.44533
1.45555
1.44948
1.44579
1.44664
1.44792
1.44855
1.44954
1.4514
1.45396
1.45686
1.45965
1.46186
1.46317
1.46366
1.46395
1.46515
1.4686
1.47558
1.4871
1.50387
1.52637
1.55492
1.58985
1.63141
1.67985
1.73542
1.79832
1.86888
1.94773
2.03576
2.13424
2.24484
2.36947
2.51001
2.66849
2.84672
3.04643
3.26906
3.51606
3.78879
4.08864
4.41713
4.77595
5.16696
5.5923
6.05431
6.55563
7.09914
7.68801
8.32567
9.01582
9.76248
10.5699
11.4427
12.3854
13.4031
14.501
15.6842
16.9584
18.3293
19.8028
21.3851
23.0827
24.9025
26.8512
28.9367
31.1668
33.55
36.0953
38.8115
41.7072
44.791
48.0701
51.5489
55.2286
59.1031
63.1574
67.3519
71.6389
75.8562
79.9637
83.1448
86.2228
83.8938
85.9085
55.5562
65.8956
-108.45
1.12523
1.13468
1.12251
1.11234
1.10588
1.09776
1.08703
1.07511
1.06262
1.04932
1.03473
1.01828
0.999363
0.97761
0.953234
0.927138
0.900709
0.875478
0.852754
0.833469
0.818169
0.807164
0.800728
0.799065
0.802347
0.810658
0.824064
0.842661
0.866852
0.897238
0.934834
0.981116
1.03782
1.10678
1.19002
1.28936
1.40641
1.54266
1.69944
1.8779
2.07926
2.30481
2.55594
2.83427
3.14162
3.48005
3.85187
4.25962
4.70611
5.19436
5.72772
6.30974
6.94419
7.63516
8.38683
9.20365
10.0902
11.0511
12.0912
13.2156
14.4293
15.7376
17.1459
18.6598
20.2848
22.0271
23.8929
25.8886
28.0208
30.296
32.7204
35.2997
38.0376
40.937
43.9957
47.2074
50.5554
54.0116
57.517
61.0053
64.2632
67.2562
68.9456
70.4693
65.2352
65.5271
27.5146
37.6276
-151.65
0.809918
0.815755
0.797837
0.781505
0.767312
0.749275
0.726872
0.701857
0.674838
0.645441
0.613075
0.576976
0.536353
0.490838
0.440874
0.387714
0.333087
0.278686
0.225815
0.175229
0.127332
0.0823408
0.040371
0.00148283
-0.034331
-0.0671418
-0.097036
-0.123961
-0.147577
-0.167116
-0.181289
-0.188578
-0.187138
-0.175024
-0.150434
-0.111694
-0.0573937
0.0136411
0.102482
0.210229
0.337841
0.486481
0.657522
0.852467
1.07313
1.32149
1.59979
1.91053
2.25639
2.64039
3.06561
3.53553
4.0537
4.62387
5.25002
5.93614
6.68646
7.50516
8.39664
9.36534
10.4157
11.5521
12.7793
14.1018
15.5245
17.052
18.6893
20.4411
22.3121
24.3064
26.4276
28.6776
31.0569
33.5623
36.1859
38.913
41.7162
44.5551
47.3497
50.0181
52.2904
54.1542
54.3124
54.3166
46.0902
44.9053
-0.728611
9.7105
-198.677
0.501296
0.50046
0.477569
0.455374
0.43278
0.404173
0.369752
0.331417
0.289617
0.243863
0.193367
0.137095
0.0740871
0.00406461
-0.0721996
-0.153027
-0.236333
-0.320309
-0.403741
-0.486008
-0.566892
-0.646365
-0.724431
-0.801181
-0.876875
-0.951817
-1.02621
-1.10003
-1.1728
-1.24349
-1.31074
-1.37277
-1.42768
-1.47356
-1.50887
-1.53216
-1.54214
-1.53809
-1.51904
-1.4842
-1.43269
-1.36345
-1.27515
-1.16637
-1.03531
-0.879978
-0.698243
-0.487615
-0.24555
0.0308655
0.344602
0.698881
1.09703
1.54267
2.03928
2.59062
3.20038
3.87244
4.61052
5.4185
6.30008
7.25917
8.29953
9.4248
10.6387
11.9449
13.3467
14.8472
16.4493
18.1547
19.9641
21.8761
23.8866
25.9878
28.1654
30.3963
32.6424
34.8509
36.9209
38.7572
40.0284
40.7614
39.3664
37.8996
26.6518
24.184
-28.8543
-17.9823
-247.554
0.201508
0.190658
0.163879
0.135984
0.104084
0.0641574
0.0173313
-0.0346165
-0.0914905
-0.153959
-0.223057
-0.300128
-0.386263
-0.481574
-0.584823
-0.693842
-0.806232
-0.920127
-1.03445
-1.14875
-1.263
-1.37736
-1.49201
-1.60735
-1.72387
-1.8421
-1.9623
-2.08435
-2.20759
-2.33074
-2.45209
-2.56989
-2.6822
-2.78729
-2.88371
-2.97035
-3.04642
-3.11126
-3.16425
-3.20469
-3.23185
-3.2447
-3.24202
-3.22234
-3.18396
-3.12484
-3.04293
-2.93582
-2.80107
-2.63589
-2.43743
-2.20267
-1.9286
-1.61189
-1.24935
-0.837695
-0.373549
0.14638
0.725343
1.36659
2.07316
2.84817
3.6945
4.61493
5.61222
6.6884
7.84573
9.08551
10.4083
11.8136
13.2989
14.8599
16.488
18.1698
19.8841
21.5998
23.2675
24.8221
26.1404
27.1158
27.3483
26.9196
23.9098
20.9552
6.58571
2.80373
-57.5001
-46.6835
-282.73
-0.0880113
-0.111888
-0.141089
-0.174698
-0.21702
-0.26907
-0.328719
-0.39462
-0.466943
-0.54655
-0.634795
-0.733387
-0.843471
-0.964811
-1.09564
-1.23324
-1.37501
-1.51905
-1.66443
-1.81097
-1.95887
-2.10848
-2.26028
-2.41495
-2.57331
-2.73598
-2.90323
-3.07474
-3.24955
-3.42607
-3.60254
-3.77697
-3.94749
-4.11261
-4.27133
-4.42286
-4.56653
-4.70208
-4.82911
-4.94708
-5.05533
-5.15282
-5.23838
-5.31054
-5.36758
-5.40756
-5.42838
-5.4278
-5.40341
-5.3526
-5.2727
-5.16101
-5.01468
-4.8308
-4.60634
-4.33855
-4.0245
-3.66133
-3.24651
-2.77726
-2.25115
-1.66596
-1.01956
-0.310172
0.463662
1.30311
2.20878
3.17997
4.21567
5.31267
6.46578
7.6668
8.90274
10.155
11.3959
12.586
13.6649
14.556
15.1134
15.2237
14.4116
12.8396
8.2136
3.8686
-13.5926
-18.3787
-85.4219
-74.2877
-322.815
-0.365642
-0.405231
-0.435195
-0.474821
-0.52888
-0.593892
-0.666796
-0.747057
-0.835285
-0.932555
-1.04062
-1.16153
-1.29637
-1.44446
-1.60336
-1.76984
-1.94112
-2.1154
-2.29195
-2.47092
-2.65271
-2.83793
-3.02747
-3.22234
-3.42358
-3.6319
-3.84738
-4.06948
-4.29681
-4.52759
-4.75972
-4.99136
-5.22087
-5.44712
-5.66919
-5.88681
-6.09986
-6.30805
-6.51133
-6.70914
-6.90084
-7.08547
-7.26181
-7.42837
-7.58347
-7.7252
-7.85153
-7.96027
-8.04916
-8.11578
-8.15767
-8.17227
-8.15714
-8.10957
-8.0271
-7.90711
-7.74729
-7.54532
-7.29914
-7.00654
-6.66588
-6.2756
-5.83456
-5.34173
-4.79673
-4.19978
-3.55195
-2.85518
-2.113
-1.33102
-0.516959
0.317001
1.15382
1.96972
2.72995
3.3875
3.8711
4.09357
3.88583
3.13222
1.27511
-1.41755
-7.65057
-13.3034
-33.785
-39.4156
-112.609
-101.337
-360.416
-0.630325
-0.687555
-0.716433
-0.762689
-0.829955
-0.90875
-0.99538
-1.09049
-1.19517
-1.31074
-1.4394
-1.5835
-1.74392
-1.91936
-2.10666
-2.30218
-2.503
-2.70751
-2.91532
-3.12679
-3.3427
-3.56402
-3.79201
-4.02806
-4.27334
-4.5285
-4.79341
-5.06704
-5.34765
-5.63326
-5.92164
-6.21108
-6.50028
-6.78841
-7.0752
-7.36067
-7.64489
-7.92783
-8.20951
-8.48953
-8.76718
-9.04151
-9.31126
-9.57489
-9.83079
-10.077
-10.3118
-10.5328
-10.7381
-10.9254
-11.0925
-11.237
-11.3569
-11.4498
-11.5135
-11.5459
-11.5451
-11.5094
-11.4371
-11.3267
-11.1773
-10.988
-10.7585
-10.4889
-10.1798
-9.83288
-9.4504
-9.03628
-8.59607
-8.13798
-7.67257
-7.21582
-6.78906
-6.42159
-6.1545
-6.04269
-6.16862
-6.62923
-7.61824
-9.24922
-12.1715
-15.9883
-23.8521
-30.789
-54.2744
-60.7702
-139.547
-128.763
-383.148
-0.880815
-0.956892
-0.98284
-1.03672
-1.11875
-1.21212
-1.31298
-1.42352
-1.54531
-1.67991
-1.83001
-1.99816
-2.18489
-2.38815
-2.60405
-2.82859
-3.05882
-3.29342
-3.53241
-3.77646
-4.02674
-4.28466
-4.55195
-4.8302
-5.12065
-5.42376
-5.73898
-6.06486
-6.39919
-6.73989
-7.08477
-7.43239
-7.78194
-8.13302
-8.48575
-8.84053
-9.19769
-9.55735
-9.91961
-10.2841
-10.65
-11.0163
-11.3817
-11.7448
-12.1039
-12.4571
-12.8027
-13.1387
-13.4632
-13.7741
-14.0694
-14.3471
-14.6054
-14.8423
-15.056
-15.2448
-15.4072
-15.5421
-15.6482
-15.7249
-15.7716
-15.7885
-15.7758
-15.7347
-15.667
-15.5755
-15.4644
-15.3388
-15.2067
-15.0786
-14.9681
-14.8947
-14.8837
-14.97
-15.2009
-15.6385
-16.3762
-17.519
-19.286
-21.7806
-25.7538
-30.6459
-40.1004
-48.1776
-74.5302
-81.5877
-165.047
-154.844
-410.493
-1.11624
-1.2114
-1.23264
-1.29551
-1.39391
-1.5026
-1.61825
-1.74489
-1.88451
-2.03895
-2.21139
-2.40445
-2.61813
-2.84949
-3.09397
-3.34731
-3.60672
-3.87126
-4.1413
-4.41801
-4.70301
-4.99818
-5.30564
-5.62719
-5.96396
-6.31594
-6.68213
-7.06057
-7.4488
-7.84464
-8.24621
-8.65244
-9.06295
-9.478
-9.89801
-10.3236
-10.7555
-11.1939
-11.6388
-12.0898
-12.546
-13.0065
-13.4698
-13.9344
-14.3988
-14.8613
-15.3201
-15.7734
-16.2195
-16.6566
-17.0829
-17.4968
-17.8966
-18.2807
-18.6478
-18.9966
-19.3261
-19.6352
-19.9237
-20.1914
-20.4384
-20.6654
-20.8738
-21.0655
-21.2435
-21.4117
-21.576
-21.743
-21.9227
-22.1282
-22.3761
-22.6892
-23.097
-23.6389
-24.3686
-25.3546
-26.7011
-28.5193
-31.0543
-34.3915
-39.3934
-45.3044
-56.2948
-65.3752
-94.4182
-101.847
-189.125
-179.879
-439.729
-1.33563
-1.44918
-1.46418
-1.53784
-1.65423
-1.77892
-1.90997
-2.0535
-2.21177
-2.38695
-2.58264
-2.80141
-3.04251
-3.3021
-3.57499
-3.8568
-4.14505
-4.43929
-4.74034
-5.04991
-5.37009
-5.70329
-6.05194
-6.41785
-6.80188
-7.20349
-7.62106
-8.05221
-8.49435
-8.94528
-9.40368
-9.86895
-10.3413
-10.8214
-11.3102
-11.8084
-12.3172
-12.8364
-13.3661
-13.9058
-14.4545
-15.0112
-15.5745
-16.1429
-16.715
-17.2891
-17.8636
-18.4368
-19.0074
-19.5738
-20.1344
-20.6877
-21.2327
-21.7679
-22.2925
-22.8054
-23.3061
-23.7943
-24.2698
-24.7333
-25.1856
-25.628
-26.0627