/*--------------------------------*- C++ -*----------------------------------*\
  =========                 |
  \\      /  F ield         | OpenFOAM: The Open Source CFD Toolbox
   \\    /   O peration     | Website:  https://openfoam.org
    \\  /    A nd           | Version:  11
     \\/     M anipulation  |
\*---------------------------------------------------------------------------*/
FoamFile
{
    format      ascii;
    class       surfaceScalarField;
    location    "50";
    object      phi;
}
// * * * * * * * * * * * * * * * * * * * * * * * * * * * * * * * * * * * * * //

dimensions      [0 3 -1 0 0 0 0];

internalField   nonuniform List<scalar> 
62845
(
48689.5
-553238
555454
46061.2
-525735
528365
43870.9
-499425
501616
41629.9
-474468
476709
39569.2
-450728
452788
37562.4
-428188
430195
35680.8
-406767
408648
33885.1
-386408
388204
32169.5
-367059
368774
30536.6
-348682
350314
28993.4
-331230
332772
27536.5
-314646
316102
26124.3
-298871
300283
24815
-283921
285230
23536
-269677
270956
22360.6
-256185
257360
21215.5
-243326
244471
20130.1
-231145
232230
19119
-219569
220580
18152.5
-208553
209519
17215.9
-198098
199034
16353.1
-188188
189051
15519.7
-178736
179569
14730.4
-169787
170576
13985
-161280
162025
13268.8
-153187
153903
12596.1
-145522
146195
11952.2
-138227
138871
11351.8
-131316
131916
10750.7
-124716
125317
10207.4
-118485
119028
9677.99
-112550
113079
9176.93
-106925
107426
8704.27
-101566
102038
8245.22
-96487.6
96946.5
7814.48
-91660.6
92091.3
7397.33
-87084.5
87501.6
7008.41
-82730
83119
6632.95
-78595.5
78971
6273.86
-74672
75031.2
5931.12
-70946
71288.8
5604.83
-67407.1
67733.6
5292.2
-64044.9
64357.9
4994.37
-60853.6
61151.7
4708.36
-57821.1
58107.3
4436.1
-54941.2
55213.8
4173.07
-52205.1
52468.4
3924
-49608.1
49857.5
3684.44
-47138.6
47378.4
3455.9
-44794.9
45023.7
3237.05
-42566.6
42785.6
3028.09
-40450.8
40659.9
2826.2
-38438.4
38640.5
2635.92
-36529.5
36719.9
2453.05
-34713.8
34896.8
2277.66
-32986.7
33162.3
2111.35
-31348.4
31514.9
1951.27
-29790
29950.2
1800.49
-28308.5
28459.5
1656.16
-26901.1
27045.5
1518.41
-25563.3
25701.2
1387.35
-24290.7
24421.9
1263.05
-23082
23206.4
1145.58
-21932.8
22050.3
1033.6
-20840.1
20952.1
928.666
-19801.1
19906.1
827.895
-18812.9
18913.8
732.819
-17874.2
17969.3
644.985
-16983.5
17071.4
561.549
-16133.6
16217
482.564
-15327.5
15406.5
409.574
-14560.8
14633.9
342.63
-13833.9
13900.8
278.893
-13140.8
13204.6
221.388
-12483.3
12540.8
167.589
-11859.6
11913.4
119.068
-11267.2
11315.7
75.3478
-10705.4
10749.2
36.6481
-10173.4
10212.1
2.51049
-9669.54
9703.68
-25.5266
-9193.96
9221.99
-50.4686
-8747.41
8772.34
-64.9024
-8322.45
8336.87
-81.2088
-7946.32
7962.62
-76.4376
-7548.71
7543.94
-84.126
-7304.96
7312.65
-54.7781
-6849.79
6820.45
-70.9706
-7047.58
7063.77
-6112.45
6041.47
75746.7
-549328
71927.3
-521916
68318.3
-495816
64884.5
-471034
61619.1
-447462
58505.5
-425075
55555.3
-403817
52747.8
-383601
50072.7
-364384
47543
-346152
45130.6
-328817
42835.3
-312351
40672.3
-296708
38597.7
-281846
36641.1
-267721
34773.1
-254317
33008.6
-241562
31318.2
-229455
29716.5
-217967
28203.6
-207040
26779.3
-196674
25399.4
-186809
24108
-177445
22860.8
-168540
21687.1
-160106
20586.6
-152087
19529.9
-144466
18516.9
-137214
17547.3
-130347
16650.7
-123819
15797.3
-117632
14972.6
-111725
14176.3
-106129
13437.9
-100827
12727.9
-95777.6
12060.9
-90993.6
11422.3
-86445.9
10812.1
-82119.7
10225.7
-78009.1
9673.44
-74119.6
9144.99
-70417.5
8641.92
-66903.9
8162.79
-63565.7
7704.56
-60395.3
7267.24
-57383.7
6851.03
-54524.9
6454.52
-51808.4
6074.92
-49228.4
5713.71
-46777.3
5368.05
-44449.1
5039.5
-42238
4725.29
-40136.5
4427.01
-38140
4140.38
-36242.8
3867
-34440.3
3608.43
-32728.1
3360.39
-31100.3
3124.44
-29553.9
2899.22
-28083.2
2684.84
-26686.6
2481.38
-25359.7
2287.48
-24096.7
2104.67
-22899.1
1928.67
-21756.7
1762.47
-20673.8
1606.16
-19644.8
1458.33
-18665.1
1317.59
-17733.5
1184
-16849.9
1057.65
-16007.2
940.05
-15209.8
829.798
-14450.6
724.058
-13728.1
625.825
-13042.6
535.159
-12392.6
450.288
-11774.7
371.452
-11188.4
298.804
-10632.8
232.241
-10106.8
171.663
-9608.97
117.862
-9140.18
69.2834
-8698.84
30.3925
-8283.59
-7.15109
-7908.8
-25.5393
-7530.35
-52.2223
-7278.29
-42.789
-6859.24
-79.8678
-7010.53
-6192.35
102690
-543907
97513
-516738
92613.6
-490916
87933.2
-466354
83512.9
-443042
79296.5
-420859
75284.2
-399805
71476.2
-379793
67858.3
-360767
64416.2
-342710
61149.9
-325551
58045.1
-309246
55101.8
-293765
52290.8
-279036
49627.1
-265057
47096
-251786
44697.6
-239164
42432
-227190
40255.1
-215791
38196.3
-204982
36226.1
-194703
34373.8
-184956
32609.9
-175681
30949
-166879
29346.9
-158504
27832.9
-150573
26392.1
-143025
25039.1
-135861
23744.5
-129052
22508.1
-122583
21315.3
-116439
20209.8
-110619
19162.3
-105081
18143.5
-99808.5
17197.1
-94831.3
16279.4
-90075.8
15404.7
-85571.2
14576.1
-81291.1
13797.9
-77230.8
13048.1
-73369.8
12336.9
-69706.3
11658.6
-66225.6
11011.6
-62918.7
10397.4
-59781
9811.69
-56797.9
9253.03
-53966.1
8721.51
-51276.8
8214.28
-48721
7731.4
-46294.3
7270
-43987.7
6830.2
-41798.2
6412.1
-39718.3
6012.9
-37740.8
5634.15
-35864
5271.59
-34077.6
4926.76
-32383.2
4599.77
-30773.2
4286.32
-29240.4
3989.44
-27786.2
3707.74
-26404.8
3436.93
-25088.9
3181.49
-23841.2
2937.1
-22654.7
2708.23
-21527.8
2489.1
-20454.7
2279.79
-19435.4
2081.83
-18467.1
1895.29
-17546.9
1717.29
-16671.9
1550.85
-15840.8
1393.06
-15052
1242.57
-14300.1
1102.34
-13587.9
970.988
-12911.2
845.838
-12267.5
729.016
-11657.9
620.314
-11079.7
518.881
-10531.4
424.858
-10012.8
338.26
-9522.36
259.062
-9060.97
186.685
-8626.46
123.916
-8220.81
65.1094
-7849.98
24.2874
-7489.51
-22.4453
-7231.54
-31.5047
-6850.16
-86.5417
-6955.48
-6278.88
129392
-537052
122868
-510214
116667
-484714
110790
-460476
105174
-437427
99866.8
-415551
94822.7
-394760
90012.9
-374983
85467.1
-356221
81126.6
-338370
77006.3
-321431
73106.3
-305346
69367.8
-290027
65850
-275518
62493.9
-261701
59314.5
-248607
56282.5
-236132
53397.8
-224305
50675.1
-213068
48085.2
-202392
45613.2
-192231
43273.8
-182617
41052.2
-173460
38933.7
-164760
36932.8
-156503
35020
-148660
33210
-141215
31487.8
-134139
29853.5
-127418
28292.2
-121022
26818.6
-114965
25417.8
-109219
24075.1
-103738
22805.2
-98538.6
21593.3
-93619.4
20454
-88936.5
19358
-84475.2
18319.9
-80253
17330.9
-76241.8
16392.3
-72431.2
15497
-68810.9
14644.8
-65373.4
13835.9
-62109.7
13062.8
-59007.9
12328.6
-56063.6
11630.4
-53267.8
10963.8
-50610.1
10330.3
-48087.5
9725.69
-45689.6
9151.45
-43413.4
8604.7
-41251.4
8082.68
-39196.3
7586.87
-37244.9
7113.03
-35390.1
6664.17
-33628.7
6234.53
-31953.5
5825.64
-30364.3
5439.08
-28853.8
5069.06
-27416.2
4717.14
-26052.9
4384.84
-24756.5
4066.42
-23522.8
3764.85
-22353.1
3475.86
-21238.8
3203.85
-20182.6
2946
-19177.5
2700.91
-18222
2467.17
-17313.1
2247.76
-16452.5
2038.36
-15631.3
1840.5
-14854.2
1654.2
-14113.8
1476.69
-13410.4
1309.43
-12743.9
1153.34
-12111.4
1005.94
-11510.5
867.311
-10941
737.592
-10401.6
616.462
-9891.64
503.708
-9409.62
399.662
-8956.94
303.488
-8530.3
217.351
-8134.69
137.105
-7769.76
73.7208
-7426.15
7.30271
-7165.14
-20.1818
-6822.7
-92.7645
-6882.92
-6371.68
155735
-528775
147897
-502375
140425
-477243
133337
-453388
126615
-430705
120201
-409137
114111
-388670
108343
-369216
102854
-350732
97644.7
-333160
92699.6
-316486
87974.9
-300621
83514.9
-285567
79260.6
-271263
75227
-257668
71384.7
-244764
67748.4
-232495
64288.8
-220845
60991.2
-209770
57870.3
-199271
54911.4
-189273
52085.1
-179791
49406
-170781
46874
-162228
44459.7
-154089
42163
-146363
39983.8
-139036
37907.3
-132063
35933.3
-125444
34061.9
-119150
32292.9
-113196
30582.2
-107508
28988.4
-102145
27467.5
-97017.7
26004.7
-92156.6
24614.7
-87546.5
23312
-83172.5
22062.9
-79003.9
20876.3
-75055.1
19746.1
-71301.1
18671
-67735.8
17649.4
-64351.8
16677.1
-61137.3
15752.4
-58083.3
14871.2
-55182.3
14033.3
-52429.9
13236
-49812.7
12476.3
-47327.8
11754.4
-44967.6
11067.2
-42726.2
10412.1
-40596.2
9788.95
-38573.1
9195.1
-36651.1
8632.01
-34827
8093.94
-33090.6
7583.86
-31443.3
7097.48
-29877.8
6633.43
-28389.7
6194.69
-26977.4
5775.5
-25633.6
5377.39
-24358.4
4998.98
-23144.3
4638.87
-21993
4297.13
-20897
3972.36
-19857.9
3663.17
-18868.3
3371.04
-17929.9
3094.62
-17036.7
2829.58
-16187.4
2580.33
-15382.1
2344.01
-14617.8
2119.28
-13889
1909
-13200.1
1708.94
-12543.9
1520.05
-11922.5
1341.96
-11332.4
1174.61
-10773.7
1017.13
-10244.2
869.768
-9744.27
732.039
-9271.88
603.78
-8828.67
484.92
-8411.43
376.57
-8026.33
275.957
-7669.13
191.944
-7342.12
107.054
-7080.23
62.7944
-6778.42
-24.8101
-6795.3
-6396.48
181691
-519127
172524
-493208
163828
-468546
155545
-445104
147687
-422848
140227
-401677
133133
-381577
126393
-362475
119976
-344315
113897
-327082
108113
-310701
102637
-295145
97410.6
-280341
92464.1
-266317
87752.8
-252956
83277
-240289
79021.9
-228240
74987.5
-216811
71159.2
-205942
67507.5
-195619
64047.2
-185812
60763.5
-176507
57641.7
-167659
54667
-159254
51839.5
-151261
49173.6
-143697
46610.6
-136473
44194.5
-129646
41895.7
-123145
39728.8
-116983
37635.2
-111102
35687.9
-105561
33799.1
-100256
32012.5
-95231.1
30328.2
-90472.2
28716.8
-85935
27178.2
-81633.9
25728.4
-77554.2
24342.7
-73669.4
23026.8
-69985.2
21776.3
-66485.3
20585.4
-63160.8
19452.5
-60004.4
18376.3
-57007
17352.3
-54158.3
16376.3
-51453.8
15449.6
-48886
14568.1
-46446.1
13728.6
-44128.1
12928.5
-41926
12169.3
-39836.9
11446.5
-37850.3
10757.5
-35961.9
10102.1
-34171.6
9480.56
-32469
8887.05
-30849.8
8323.11
-29313.9
7787.33
-27853.9
7276.88
-26466.9
6791.81
-25148.5
6329.29
-23895.8
5892.27
-22707.3
5475
-21575.7
5080.43
-20502.4
4702.84
-19480.2
4346.59
-18512.1
4005.96
-17589.2
3683.9
-16714.6
3378.97
-15882.5
3089.8
-15092.9
2813.57
-14341.6
2554.57
-13630
2308.59
-12954.1
2075.68
-12311
1854.77
-11701.6
1646.75
-11124.4
1450.55
-10577.5
1265.87
-10059.5
1092.24
-9570.65
929.448
-9109.1
777.292
-8676.52
635.513
-8269.67
505.019
-7895.86
383.513
-7547.65
278.43
-7237.06
175.103
-6976.92
110.485
-6713.82
9.38467
-6694.23
-6387.13
207155
-508138
196692
-482745
186758
-458612
177339
-435685
168361
-413870
159853
-393169
151758
-373481
144074
-354792
136788
-337029
129840
-320133
123260
-304121
116988
-288874
111040
-274393
105387
-260663
100027
-247597
94918.2
-235179
90073.6
-223396
85464.6
-212202
81090.9
-201568
76937.9
-191466
73005.7
-181880
69250.1
-172751
65685.7
-164095
62297.9
-155866
59086.6
-148050
56022.3
-140633
53119.7
-133570
50364
-126891
47740.4
-120522
45248.9
-114492
42889.3
-108743
40632.3
-103304
38492.4
-98115.8
36469.6
-93208.3
34534.5
-88537.1
32701.7
-84102.2
30958
-79890.2
29294.5
-75890.7
27718.5
-72093.4
26219.8
-68486.4
24793.9
-65059.4
23438
-61804.9
22149
-58715.4
20922.6
-55780.6
19755.9
-52991.6
18647.5
-50345.3
17591.5
-47830
16588
-45442.6
15632.5
-43172.6
14725.3
-41018.7
13860.4
-38972
13039.3
-37029.3
12257.9
-35180.4
11514.6
-33428.2
10806.6
-31761
10134
-30177.1
9493.89
-28673.7
8884.89
-27244.8
8305.6
-25887.5
7756.05
-24598.9
7233.42
-23373.2
6734.86
-22208.7
6261.85
-21102.6
5812.98
-20053.5
5386.86
-19054.1
4979.21
-18104.4
4595.81
-17205.8
4229.52
-16348.3
3883.22
-15536.2
3552.7
-14762.4
3242.2
-14031.1
2944.69
-13332.5
2664.42
-12673.8
2398.5
-12045
2147.6
-11450.7
1910.12
-10886.9
1685.58
-10352.9
1474.02
-9847.91
1274.43
-9371.05
1086.81
-8921.47
910.792
-8500.49
746.188
-8105.05
593.269
-7742.93
450.823
-7405.18
324.108
-7110.33
201.539
-6854.32
114.684
-6626.94
0.663593
-6580.19
-6386.45
232085
-495824
220371
-471030
209243
-447484
198660
-425101
188621
-403830
179082
-383630
170014
-364413
161402
-346180
153216
-328844
145443
-312360
138053
-296730
131045
-281866
124390
-267738
118044
-254317
112022
-241575
106323
-229481
100889
-217962
95734.7
-207048
90830.5
-196664
86176.3
-186812
81742.9
-177447
77544.9
-168553
73552.8
-160102
69752
-152065
66157
-144455
62723.8
-137200
59481.7
-130328
56386.5
-123795
53452.9
-117588
50666.1
-111705
48011.4
-106088
45488.6
-100781
43097.8
-95724.9
40824.1
-90934.6
38652.9
-86365.9
36598.8
-82048
34645.6
-77936.9
32788.8
-74033.9
31022.6
-70327.2
29342.6
-66806.4
27747.2
-63464
26229.2
-60286.8
24787
-57273.2
23413.4
-54407
22109.9
-51688
20869.1
-49104.5
19688.1
-46649
18565.5
-44319.9
17499.9
-42107
16484
-40002.8
15519.2
-38007.2
14598.5
-36108.5
13726.1
-34308
12894.9
-32597
12104.8
-30970.9
11354.5
-29426.8
10639.7
-27958.8
9960.32
-26565.4
9313.62
-25240.8
8699.62
-23984.9
8115.42
-22788.9
7559.69
-21652.9
7032.39
-20575.3
6530.7
-19551.8
6053.23
-18576.6
5601.4
-17652.5
5170.98
-16775.4
4763.38
-15940.7
4374.38
-15147.2
4008.23
-14396.2
3657.89
-13680.7
3327.62
-13002.2
3013.15
-12359.3
2716.38
-11748.2
2434.8
-11169.1
2168.3
-10620.4
1916.31
-10100.9
1678.01
-9609.61
1453.34
-9146.38
1241.49
-8709.63
1042.26
-8301.27
855.325
-7918.13
680.622
-7568.24
517.253
-7241.84
369.362
-6962.47
227.815
-6712.8
118.43
-6517.58
-8.92006
-6452.87
-6395.41
256378
-482201
243442
-458094
231151
-435193
219478
-413428
208393
-392745
197837
-373075
187841
-354417
178316
-336655
169276
-319804
160707
-303791
152536
-288559
144791
-274121
137429
-260376
130435
-247323
123794
-234934
117476
-223163
111483
-211968
105783
-201348
100378
-191259
95222.6
-181657
90346.9
-172571
85691.9
-163898
81286.9
-155697
77102.5
-147881
73109.3
-140462
69336.7
-133427
65740.5
-126732
62335.3
-120390
59077.1
-114330
55995.1
-108623
53074.6
-103168
50286.1
-97992.5
47629.7
-93068.5
45119.9
-88424.8
42742
-83988
40463.7
-79769.7
38305.4
-75778.6
36253.9
-71982.4
34304.8
-68378.1
32450.8
-64952.3
30688.9
-61702.1
29014.7
-58612.6
27420.9
-55679.3
25907.4
-52893.5
24467
-50247.6
23096.7
-47734.2
21796.6
-45348.8
20557.8
-43081.2
19380.6
-40929.7
18261.9
-38884
17197.3
-36942.7
16185.6
-35096.7
15222.3
-33344.7
14307.4
-31682.1
13436.8
-30100.2
12607.4
-28597.3
11820.7
-27172.1
11072.5
-25817.2
10361.4
-24529.7
9684.42
-23307.9
9041.65
-22146.1
8430.22
-21041.5
7848.73
-19993.8
7295.76
-18998.8
6772.75
-18053.6
6274.02
-17153.8
5799.55
-16300.9
5349.37
-15490.5
4923.5
-14721.3
4517.68
-13990.4
4133.33
-13296.4
3769.05
-12637.9
3422.05
-12012.3
3093.87
-11420
2783.12
-10858.3
2488.56
-10325.8
2209.96
-9822.3
1946.51
-9346.15
1697.47
-8897.33
1462.61
-8474.76
1241.26
-8079.92
1033.11
-7709.97
838.157
-7373.27
655.669
-7059.33
488.848
-6795.62
330
-6553.92
202.429
-6389.97
60.818
-6311.24
-6334.57
280034
-467328
265907
-443967
252483
-421769
239720
-400665
227604
-380629
216091
-361562
205152
-343478
194773
-326275
184893
-309924
175514
-294412
166621
-279666
158139
-265640
150100
-252336
142472
-239696
135212
-227674
128305
-216257
121766
-205429
115537
-195118
109630
-185353
104018
-176045
98670.8
-167224
93602.9
-158830
88785
-150880
84202.6
-143298
79870
-136129
75728.7
-129286
71807.8
-122811
68063.4
-116646
64539.4
-110806
61162.3
-105246
57961.4
-99966.6
54922
-94953.1
52044.1
-90190.5
49283.5
-85664.2
46669.6
-81374
44202.3
-77302.3
41844.8
-73421.2
39606
-69743.6
37475.6
-66247.7
35452
-62928.7
33527.9
-59778
31699
-56783.6
29960.8
-53941.1
28308.8
-51241.5
26737.4
-48676.1
25244.9
-46241.7
23824.2
-43928.1
22473.7
-41730.7
21189.2
-39645.1
19969.1
-37663.9
18807.6
-35781.2
17703.4
-33992.4
16654.9
-32296.2
15656.5
-30683.6
14706.6
-29150.3
13805.3
-27696
12948.3
-26315.1
12131.3
-25000.2
11357
-23755.4
10618.5
-22569.4
9917.14
-21444.7
9252.87
-20377.2
8620.01
-19360.9
8017.17
-18395.9
7445.77
-17482.2
6902.93
-16610.9
6387.26
-15785.2
5897.33
-15000.6
5431.73
-14255.7
4989.04
-13547.7
4569.26
-12876.6
4170.97
-12239.7
3794.19
-11635.5
3436.09
-11061.9
3096.54
-10518.8
2775
-10004.3
2470.23
-9517.53
2181.97
-9057.9
1909.27
-8624.63
1651.62
-8217.11
1408.25
-7836.56
1179.29
-7481.02
964.079
-7158.08
762.145
-6857.42
575.831
-6609.34
399.321
-6377.44
253.142
-6243.82
95.1039
-6153.24
-6239.52
302937
-451248
287663
-428692
273135
-407241
259342
-386872
246225
-367512
233770
-349107
221933
-331640
210684
-315026
200023
-299264
189864
-284253
180219
-270021
171075
-256496
162372
-243634
154096
-231420
146247
-219825
138795
-208805
131711
-198345
124980
-188387
118573
-178945
112504
-169976
106729
-161449
101249
-153350
96018
-145649
91081.5
-138362
86365.7
-131414
81899.8
-124820
77654.4
-118565
73629.6
-112621
69781.1
-106957
66138.3
-101603
62671.9
-96500.2
59381.6
-91662.8
56267.5
-87076.4
53300.3
-82696.9
50478.2
-78552
47789.7
-74613.8
45240.5
-70871.9
42817.3
-67320.4
40514.3
-63944.6
38327
-60741.5
36245.2
-57696.2
34268.9
-54807.3
32387.8
-52059.9
30600.3
-49454.1
28902.2
-46978
27287.6
-44627.1
25752.1
-42392.5
24292.8
-40271.3
22905.3
-38257.5
21585.2
-36343.8
20331.2
-34527.1
19138.8
-32800
18005.2
-31162.5
16926
-29604.4
15901.3
-28125.5
14926.7
-26721.4
13999.3
-25387.7
13120.5
-24121.4
12281.9
-22916.7
11486.1
-21773.6
10729
-20687.6
10009.1
-19657.2
9326.35
-18678.2
8677.87
-17747.4
8058.08
-16862.4
7472.61
-16025.5
6915.74
-15228.3
6386.08
-14470.9
5882.2
-13751.8
5405.47
-13070.9
4953.1
-12424.2
4523.62
-11810.2
4114.41
-11226.3
3727.25
-10674.8
3359.9
-10151.4
3011.79
-9656.15
2681.79
-9187.53
2369.23
-8745.32
2073.3
-8328.69
1793.33
-7937.13
1528.79
-7572.01
1278.98
-7231.2
1043.52
-6922.6
822.127
-6636
616.113
-6403.3
420.941
-6182.23
253.664
-6076.51
79.5482
-5979.09
-6159.94
325057
-433977
308651
-412285
293079
-391669
278271
-372064
264197
-353439
250844
-335753
238137
-318934
226079
-302967
214608
-287794
203727
-273371
193375
-259669
183553
-246674
174217
-234297
165352
-222554
156928
-211401
148916
-200793
141302
-190731
134085
-181170
127221
-172081
120695
-163450
114493
-155247
108614
-147471
103030
-140065
97710
-133042
92655
-126359
87864.6
-120029
83309.5
-114010
78960.3
-108272
74860.9
-102858
70952.5
-97694.8
67235.2
-92782.8
63708.8
-88136.5
60344
-83711.6
57161.3
-79514.2
54132.7
-75523.4
51253.8
-71734.9
48520.1
-68138.2
45919.9
-64720.2
43448.8
-61473.5
41100.8
-58393.5
38868.6
-55464
36746.4
-52685
34732.6
-50046.1
32815.5
-47537
30992.3
-45154.7
29259.9
-42894.6
27614
-40746.6
26048.8
-38706.1
24561.2
-36770
23147.1
-34929.6
21800.5
-33180.5
20522.9
-31522.4
19307.1
-29946.7
18151.5
-28448.8
17053.4
-27027.3
16009.8
-25677.7
15016.3
-24394.2
14071.7
-23176.7
13174.3
-22019.3
12322.8
-20922.1
11512.8
-19877.6
10741.5
-18885.9
10009
-17945.5
9312.24
-17050.7
8652.62
-16202.7
8023.13
-15396
7425.2
-14630.4
6858.72
-13904.4
6320.87
-13213.9
5808.83
-12558.9
5322.56
-11937.9
4861.21
-11348.8
4424.17
-10789.3
4008.77
-10259.4
3614.84
-9757.49
3241.01
-9282.32
2886.63
-8833.16
2550.77
-8409.46
2232.55
-8010.47
1931.17
-7635.76
1645.95
-7286.8
1376.42
-6961.69
1121.7
-6667.91
881.44
-6395.76
656.038
-6177.92
443.032
-5969.25
253.506
-5887.01
63.3071
-5788.94
-6096.69
346337
-415603
328871
-394819
312255
-375054
296491
-356299
281505
-338453
267268
-321517
253738
-305403
240898
-290128
228677
-275573
217088
-261782
206074
-248655
195589
-236189
185649
-224357
176209
-213115
167226
-202417
158713
-192280
150612
-182630
142909
-173467
135588
-164760
128650
-156512
122049
-148647
115773
-141195
109820
-134112
104161
-127383
98781.8
-120979
93667.1
-114915
88817
-109160
84216.8
-103672
79822.5
-98463.4
75648.7
-93520.9
71709.8
-88844
67947.4
-84374
64370.1
-80134.3
60973.4
-76117.5
57747
-72297
54682.2
-68670
51768.5
-65224.5
48998.7
-61950.4
46369.7
-58844.5
43866.8
-55890.6
41491.6
-53088.8
39232.2
-50425.6
37084.4
-47898.2
35043.5
-45496.1
33105.3
-43216.5
31261
-41050.3
29507.7
-38993.2
27842.3
-37040.7
26257.8
-35185.4
24751
-33422.8
23320.6
-31750
21960.7
-30162.5
20667
-28653
19436.5
-27218.4
18268
-25858.7
17156.8
-24566.6
16100.3
-23337.7
15097
-22173.3
14142.4
-21064.7
13233.8
-20013.4
12371.1
-19014.9
11552.9
-18067.7
10773.4
-17166
10032.6
-16309.9
9329.11
-15499.3
8661.46
-14728.3
8026.71
-13995.6
7423.58
-13301.3
6850.53
-12640.9
6306.14
-12014.5
5788.99
-11420.8
5298.61
-10858.4
4832.87
-10323.5
4390.79
-9817.27
3971.32
-9338.01
3573.31
-8884.3
3196.09
-8455.92
2838.24
-8051.6
2499.14
-7671.35
2178.02
-7314.62
1873.8
-6982.56
1586.07
-6673.94
1313.95
-6395.77
1057.43
-6139.22
816.232
-5936.69
588.637
-5741.61
384.463
-5682.79
181.478
-5585.91
-5915.16
366702
-396125
348207
-376324
330635
-357482
313929
-339593
298060
-322584
282985
-306441
268674
-291093
255055
-276508
242141
-262659
229846
-249487
218183
-236992
207109
-225115
196580
-213828
186566
-203100
177066
-192918
168023
-183237
159451
-174058
151306
-165321
143572
-157027
136207
-149146
129223
-141663
122578
-134550
116272
-127805
110274
-121385
104585
-115290
99175.2
-109505
94015.5
-104001
89135.2
-98791.2
84504.7
-93832.9
80094.7
-89110.9
75890.6
-84639.8
71914.2
-80397.6
68136.1
-76356.2
64541.6
-72523
61126.4
-68881.8
57880.1
-65423.6
54795.2
-62139.7
51864.6
-59019.7
49077.8
-56057.6
46430.4
-53243.2
43913.6
-50572
41523
-48035
39249.8
-45625
37089.6
-43335.9
35035
-41161.9
33084.7
-39099.9
31229.7
-37138.2
29465.7
-35276.7
27788.4
-33508.1
26196.3
-31830.7
24682
-30235.7
23241.3
-28721.7
21872.7
-27284.3
20573.1
-25918.8
19337
-24622.5
18159.8
-23389.4
17043.1
-22220.9
15979.5
-21109.7
14970.7
-20055.8
14012.1
-19054.8
13099.5
-18102.2
12231.4
-17199.6
11407.9
-16342.5
10625.9
-15527.9
9881.3
-14754.7
9173.98
-14021
8502.59
-13324.2
7864.16
-12662.8
7258.67
-12035.4
6683.29
-11439.1
6137.13
-10874.6
5617.36
-10338.7
5124.36
-9830.53
4656.53
-9349.44
4212.45
-8893.93
3791.1
-8462.96
3391.18
-8056
3012.07
-7672.49
2652.36
-7311.65
2311.34
-6973.6
1988.18
-6659.42
1682.08
-6367.85
1391.92
-6105.63
1117.72
-5865.04
858.643
-5677.65
613.679
-5496.68
390.277
-5459.43
168.699
-5364.39
-5746.53
386123
-375647
366628
-356829
348130
-338983
330542
-322005
313834
-305877
297964
-290572
282888
-276017
268562
-262182
254942
-249039
242014
-236558
229733
-224711
218055
-213438
206966
-202739
196436
-192571
186421
-182903
176921
-173738
167878
-165014
159290
-156734
151144
-148881
143395
-141397
136029
-134297
129045
-127566
122399
-121159
116092
-115078
110093
-109292
104389
-103801
98993
-98604.8
93847.2
-93645.4
88951.4
-88937.1
84305.5
-84465
79902
-80236.3
75705.8
-76201.3
71722.6
-72373.1
67936.4
-68736.8
64339.7
-65285
60922.1
-62006.1
57673.5
-58891.1
54586.5
-55932.6
51653.6
-53124.7
48866.1
-50455.7
46218
-47923.9
43699.2
-45516.1
41306.5
-43232.3
39031.4
-41060.7
36870.7
-39001.2
34815.7
-37044.9
32862.1
-35184.6
31006.9
-33421.5
29244.1
-31745.3
27566.7
-30153.2
25973
-28642
24457.3
-27206
23016.6
-25843.5
21648
-24550.2
20345.8
-23320.2
19109.8
-22153.4
17934.4
-21045.4
16816.5
-19991.9
15754.8
-18994.1
14744.8
-18044.8
13785.3
-17142.7
12873.2
-16287.5
12007.1
-15476.3
11184.1
-14704.9
10401.3
-13971.8
9657.3
-13277
8950.64
-12617.5
8279.74
-11991.9
7641.98
-11397.6
7036.02
-10833.2
6460.45
-10299
5914.1
-9792.29
5395.5
-9311.91
4902.94
-8856.87
4435.4
-8426.38
3991.66
-8019.21
3570.61
-7634.93
3170.88
-7272.75
2791.72
-6932.48
2432.12
-6613.98
2090.78
-6318.06
1767.23
-6044.28
1460.08
-5798.46
1169.14
-5574.07
892.823
-5401.3
631.16
-5234.97
387.125
-5215.34
148.738
-5125.95
-5597.73
404514
-354155
384121
-336436
364726
-319588
346314
-303593
328812
-288375
312177
-273937
296380
-260219
281377
-247179
267109
-234771
253577
-223026
240692
-211826
228470
-201215
216850
-191119
205820
-181540
195333
-172417
185377
-163781
175906
-155544
166921
-147748
158377
-140337
150260
-133280
142554
-126592
135231
-120243
128261
-114189
121659
-108476
115380
-103013
109411
-97830.7
103735
-92929
98338.3
-88249
93221.1
-83819.9
88371.5
-79615.3
83743.8
-75608.7
79351.4
-71808.9
75177.9
-68199.6
71213.1
-64771.9
67445.2
-61517.1
63863.8
-58424.8
60461.7
-55489
57228.6
-52699.4
54155.5
-50051.7
51236.7
-47536.8
48461.7
-45148.9
45824.9
-42879.2
43317.2
-40724.7
40937.3
-38680.8
38673.5
-36737.3
36519.8
-34891.2
34476.3
-33141
32532.6
-31477.8
30684.6
-29897.2
28929.1
-28397.7
27258.9
-26971.8
25674
-25621.1
24165.7
-24335.2
22732.4
-23117
21369.9
-21957.7
20075.2
-20858.7
18843.9
-19814.2
17674.6
-18822.6
16563
-17882.5
15504.7
-16986.5
14501.1
-16139.1
13547.9
-15334.2
12639.3
-14567.7
11776.7
-13842.4
10958.7
-13153.8
10180.9
-12499.2
9440.56
-11877.2
8737.61
-11289
8070.51
-10730.5
7437.21
-10199.9
6835.18
-9696.98
6263.38
-9220.49
5720.24
-8768.76
5204.83
-8341.46
4715.29
-7936.83
4250.59
-7554.51
3809.52
-7193.86
3390.93
-6854.16
2993.71
-6535.27
2616.84
-6237.11
2259.05
-5960.29
1919.53
-5704.78
1597.22
-5476.16
1291.56
-5268.44
1000.62
-5110.39
725.155
-4959.54
465.28
-4955.5
213.85
-4874.58
-5383.95
421887
-331779
400597
-315146
380393
-299384
361172
-284372
342935
-270138
325594
-256596
309106
-243731
293455
-231528
278599
-219915
264463
-208891
251048
-198411
238295
-188462
226175
-178999
214659
-170023
203730
-161489
193347
-153398
183478
-145675
174110
-138380
165197
-131425
156741
-124824
148697
-118547
141050
-112596
133800
-106939
126902
-101578
120344
-96454.1
114138
-91624.8
108211
-87002.5
102594
-82631.2
97261
-78487.3
92181.4
-74535.6
87361.9
-70789.2
82780.6
-67227.5
78430
-63849
74295.5
-60637.4
70365.2
-57586.8
66631.9
-54691.4
63083.7
-51940.7
59713.2
-49329
56508.8
-46847.2
53464.5
-44492.5
50570.1
-42254.5
47821.1
-40130.2
45208.7
-38112.2
42724.1
-36196.2
40362.9
-34376.1
38120.7
-32649
35988.8
-31009
33961.2
-29450.2
32035
-27971
30204.4
-26567
28466.4
-25233.8
26810.9
-23965.5
25240.7
-22765
23745.7
-21621.9
22325.9
-20537.8
20976.7
-19509.5
19694
-18531.4
18474.9
-17603.4
17314.8
-16722.3
16215.3
-15887
15169
-15092.8
14173.3
-14338.4
13229.4
-13623.8
12330.1
-12943.1
11476.9
-12300.5
10665.5
-11687.7
9895.6
-11107.3
9163.15
-10556.5
8467.28
-10034.6
7806.61
-9539.18
7179.14
-9069.49
6583.04
-8624.39
6017.28
-8202.99
5479.74
-7803.91
4969.47
-7426.55
4485.02
-7070.05
4025.04
-6733.86
3588.49
-6417.59
3174.09
-6120.86
2780.45
-5843.45
2406.99
-5586.81
2052.22
-5349.99
1715.02
-5138.92
1395.03
-4948.42
1089.71
-4805.04
800.323
-4670.1
524.8
-4679.92
258.892
-4608.62
-5124.99
438126
-308506
416042
-293062
395029
-278371
375088
-264430
356130
-251180
338127
-238593
321021
-226625
304767
-215275
289322
-204470
274642
-194210
260711
-184481
247458
-175209
234882
-166423
222938
-158079
211582
-150134
200786
-142601
190549
-135438
180798
-128629
171547
-122173
162751
-116028
154412
-110208
146485
-104668
138940
-99394.6
131763
-94401.4
124968
-89659.3
118497
-85153.6
112364
-80869.5
106534
-76801.1
100983
-72936.6
95714.8
-69267.1
90707.9
-65782.4
85952.5
-62472
81432.2
-59328.7
77136.9
-56342
73056
-53506
69179.5
-50814.8
65494.1
-48255.2
61992.3
-45827.2
58665.3
-43520.3
55503
-41330.1
52497.9
-39249.3
49642.6
-37274.9
46928.4
-35398
44349.4
-33617.2
41899.7
-31926.4
39570.6
-30319.8
37356
-28794.5
35251.8
-27345.9
33252
-25971.1
31352.1
-24667.2
29545
-23426.7
27829.1
-22249.6
26195.7
-21131.6
24644.8
-20071
23171.9
-19064.9
21769.9
-18107.5
20438.7
-17200.2
19172.5
-16337.1
17971.2
-15521.1
16827.7
-14743.4
15740.5
-14005.6
14708
-13306
13726
-12641.7
12795.8
-12012.9
11908.9
-11413.6
11066.6
-10845.4
10267.5
-10308.1
9508
-9797.03
8786.06
-9312.65
8100.31
-8853.42
7448.94
-8418.12
6830.31
-8005.75
6242.77
-7615.44
5684.82
-7245.96
5154.87
-6896.59
4651.84
-6567.02
4174.24
-6256.26
3720.58
-5963.93
3289.76
-5690.04
2880.88
-5434.58
2492.1
-5198.03
2122.85
-4980.76
1771.3
-4787.39
1436.96
-4614.11
1117.1
-4485.2
812.638
-4365.67
518.712
-4386.03
235.835
-4325.8
-4889.23
453261
-284453
430383
-270184
408678
-256666
388045
-243797
368426
-231561
349805
-219972
332111
-208930
315283
-198447
299308
-188495
284142
-179044
269712
-170050
256017
-161514
243013
-153419
230642
-145708
218889
-138381
207725
-131437
197120
-124833
187059
-118568
177483
-112598
168393
-106938
159759
-101574
151537
-96446.4
143757
-91613.9
136344
-86988.4
129313
-82628.6
122621
-78461.1
116265
-74513.8
110227
-70763
104490
-67199.9
99040.2
-63817.2
93862.2
-60604.4
88941.5
-57551.3
84264.8
-54652
79823.3
-51900.4
75602.2
-49284.9
71589.9
-46802.5
67778.9
-44444.2
64157.5
-42205.7
60715.5
-40078.2
57443.9
-38058.5
54336.8
-36142.3
51382.7
-34320.7
48575.5
-32590.8
45908
-30949.6
43372.7
-29391.1
40962.4
-27909.5
38672.7
-26504.7
36497.6
-25170.8
34429.9
-23903.4
32463.8
-22701
30594.8
-21557.7
28820
-20474.8
27132.1
-19443.6
25529.6
-18468.5
24003.9
-17539.1
22556.2
-16659.8
21178
-15821.9
19870.6
-15029.7
18626.8
-14277.2
17443.7
-13560.3
16321.1
-12883
15254.9
-12239.7
14240.6
-11627.5
13275.3
-11047.6
12360.5
-10498.8
11490.6
-9975.5
10663.3
-9480.88
9877.77
-9011.46
9131.64
-8566.51
8422.72
-8144.49
7749.47
-7744.85
7110.04
-7366.31
6502.57
-7007.96
5925.7
-6669.08
5377.99
-6348.87
4857.76
-6046.78
4363.84
-5762.32
3894.81
-5494.89
3449.31
-5244.52
3026.07
-5011.32
2623.95
-4795.88
2241.72
-4598.5
1877.77
-4423.4
1531.35
-4267.66
1199.28
-4153.09
883.114
-4049.45
574.878
-4077.73
279.538
-4030.4
-4609.61
467188
-259665
443633
-246628
421237
-234271
399972
-222532
379779
-211368
360570
-200764
342331
-190691
325004
-181119
308543
-172035
292892
-163393
278034
-155193
263927
-147406
250497
-139989
237758
-132969
225651
-126274
214148
-119934
203233
-113918
192834
-108168
182978
-102743
173608
-97568.5
164694
-92660.3
156251
-88003.2
148205
-83567.8
140586
-79368.8
133316
-75359.1
126426
-71571
119877
-67964.8
113655
-64540.5
107744
-61289.1
102127
-58200.4
96788.2
-55265.5
91716.9
-52480
86898.4
-49833.5
82319.6
-47321.6
77970.1
-44935.4
73835.2
-42667.5
69906
-40515.1
66172.4
-38472.1
62625.4
-36531.2
59256.3
-34689.3
56051.8
-32937.8
53007.6
-31276.4
50114.7
-29697.9
47365.9
-28200.8
44752.4
-26777.6
42271.2
-25428.3
39910.6
-24144.1
37667.7
-22927.9
35536.6
-21772.3
33511.4
-20675.8
31586.4
-19632.6
29755.6
-18644
28019
-17707
26365
-16814.5
24795
-15969.1
23301.7
-15166.6
21883.7
-14403.9
20535.2
-13681.1
19253.1
-12995.2
18037.5
-12344.7
16879.8
-11725.2
15779.8
-11139.7
14734.6
-10582.3
13742.9
-10055.8
12797.9
-9553.78
11902
-9079.6
11050.4
-8629.22
10241.2
-8202.29
9472.49
-7797.77
8742.32
-7414.32
8048.64
-7051.16
7389.78
-6707.45
6764.08
-6382.24
6169.74
-6074.73
5605.51
-5784.63
5069.52
-5510.79
4560.53
-5253.32
4077.16
-5011.51
3618.11
-4785.48
3181.85
-4575.07
2767.37
-4381.41
2373.11
-4204.26
1997.51
-4047.82
1639.83
-3910
1296.7
-3809.99
969.679
-3722.46
649.022
-3757.11