/*--------------------------------*- C++ -*----------------------------------*\
  =========                 |
  \\      /  F ield         | OpenFOAM: The Open Source CFD Toolbox
   \\    /   O peration     | Website:  https://openfoam.org
    \\  /    A nd           | Version:  11
     \\/     M anipulation  |
\*---------------------------------------------------------------------------*/
FoamFile
{
    format      ascii;
    class       surfaceScalarField;
    location    "50";
    object      phi;
}
// * * * * * * * * * * * * * * * * * * * * * * * * * * * * * * * * * * * * * //

dimensions      [0 3 -1 0 0 0 0];

internalField   nonuniform List<scalar> 
62845
(
425107
-1.90041e+06
1.91687e+06
401322
-1.80724e+06
1.83103e+06
382001
-1.71691e+06
1.73624e+06
362497
-1.63066e+06
1.65017e+06
344217
-1.54874e+06
1.56703e+06
326641
-1.47083e+06
1.4884e+06
310047
-1.39669e+06
1.41328e+06
294259
-1.32618e+06
1.34197e+06
279226
-1.25916e+06
1.27419e+06
264948
-1.19547e+06
1.20975e+06
251419
-1.13497e+06
1.1485e+06
238609
-1.07748e+06
1.09029e+06
226351
-1.02278e+06
1.03504e+06
214828
-970941
982463
203766
-921551
932612
193402
-874768
885131
183463
-830186
840124
174037
-787961
797387
165155
-747836
756718
156702
-709662
718114
148613
-673438
681526
141027
-639111
646697
133778
-606378
613626
126905
-575389
582262
120395
-545941
552450
114189
-517932
524138
108324
-491409
497274
102743
-466172
471754
97483.2
-442268
447527
92386.5
-419443
424540
87645.7
-397899
402640
83101
-377381
381926
78794.6
-357939
362245
74719.5
-339421
343497
70819.4
-321876
325777
67137.1
-305202
308885
63616.4
-289397
292918
60302
-274362
277677
57138.5
-260088
263252
54130.3
-246546
249555
51272.7
-233689
236547
48560.8
-221481
224194
45980.1
-209886
212468
43530.5
-198884
201334
41198.6
-188433
190766
38984.8
-178513
180727
36871.6
-169091
171205
34869.8
-160154
162156
32962.1
-151659
153567
31150.1
-143601
145414
29425.9
-135945
137670
27786.8
-128680
130320
26220.7
-121776
123342
24739.3
-115231
116712
23325.6
-109010
110424
21978.1
-103098
104446
20698.4
-97493.5
98772.9
19476.1
-92166.6
93388.9
18317.6
-87106.9
88265.1
17212.5
-82303.5
83408.3
16158.5
-77741.1
78794.6
15154.4
-73404.4
74408.1
14198.7
-69287.4
70242.9
13289.6
-65375.1
66284
12420.9
-61657.2
62525.3
11596
-58122.7
58947.2
10805
-54761.6
55552.4
10050.6
-51567.8
52322
9335.73
-48535.4
49249.8
8650.85
-45641
46325.3
7994.91
-42891.3
43546.8
7370.94
-40272.1
40895.7
6777.85
-37781.3
38374.1
6206.36
-35400.6
35971.8
5663.35
-33132.2
33674.6
5140.82
-30968.5
31490.4
4641.87
-28899.2
29397.6
4163.89
-26920.5
27398
3705.62
-25024.5
25482.4
3265.74
-23205.9
23645.4
2842.99
-21458.4
21880.5
2436.45
-19775.4
20181.2
2045.55
-18152.2
18542.3
1669.41
-16581.6
16957
1307.96
-15063.4
15424.3
962.176
-13584.3
13929.6
630.548
-12178.3
12509.6
318.966
-10777.9
11089.4
-9653.26
9972.11
517687
-1.8748e+06
491500
-1.78104e+06
466723
-1.69213e+06
443193
-1.60713e+06
420728
-1.52628e+06
399328
-1.44943e+06
379020
-1.37638e+06
359712
-1.30688e+06
341342
-1.24079e+06
323939
-1.17806e+06
307382
-1.11842e+06
291652
-1.06175e+06
276780
-1.00791e+06
262592
-956754
249173
-908132
236401
-861996
224311
-818096
212782
-776432
201850
-736905
191501
-699313
181719
-663656
172339
-629731
163502
-597540
155041
-566929
147046
-537947
139507
-510393
132312
-484215
125450
-459310
118912
-435729
112790
-413321
106972
-392081
101403
-371812
96074.9
-352610
91078.5
-334424
86308
-317105
81806.4
-300700
77518.7
-285109
73437.6
-270280
69543.1
-256193
65864.1
-242867
62361.9
-230186
59036.2
-218155
55876.8
-206727
52870.3
-195877
50011.4
-185574
47297.3
-175798
44719.1
-166513
42263.6
-157698
39932.6
-149328
37712.9
-141382
35606.6
-133839
33601.1
-126675
31698.5
-119873
29881.9
-113414
28153.4
-107282
26515.6
-101460
24952.1
-95930
23465.4
-90680.1
22049
-85690.7
20700.9
-80955.6
19419.2
-76459.7
18197.8
-72183.2
17039.6
-68129.3
15929.2
-64265
14874.2
-60602.4
13873
-57121.8
12920
-53808.7
12009.2
-50657.3
11139.4
-47665.8
10309.4
-44811.2
9522.19
-42104.3
8772.33
-39522.4
8050.52
-37059.6
7363.78
-34714.1
6710.88
-32479.5
6085.61
-30343.4
5487.38
-28301.2
4915.15
-26348.5
4367.18
-24476.8
3842.06
-22681.2
3338.4
-20955.2
2855.09
-19292.5
2390.55
-17688.3
1944.58
-16136.1
1515.91
-14635.3
1106.23
-13175.1
714.007
-11786.7
344.161
-10408.4
-9309.69
610411
-1.84282e+06
579744
-1.75037e+06
550447
-1.66283e+06
522569
-1.57925e+06
496120
-1.49983e+06
470915
-1.42422e+06
446943
-1.35241e+06
424185
-1.28412e+06
402570
-1.21917e+06
382017
-1.15751e+06
362516
-1.09892e+06
343993
-1.04323e+06
326429
-990346
309702
-940027
293844
-892274
278787
-846939
264512
-803820
251002
-762923
238091
-723994
225863
-687085
214202
-651995
203197
-618727
192734
-587077
182850
-557044
173382
-528478
164419
-501430
155902
-475697
147869
-451277
140212
-428072
132920
-406028
125935
-385097
119398
-365275
113203
-346415
107242
-328463
101658
-311521
96292.7
-295335
91192.3
-280008
86358.6
-265446
81802.1
-251637
77443.6
-238508
73310.9
-226053
69379.7
-214224
65641.8
-202989
62096.1
-192332
58724.4
-182202
55518.5
-172592
52474
-163468
49577.4
-154801
46825.2
-146576
44205.5
-138762
41714.4
-131348
39349.3
-124310
37097.7
-117622
34961.9
-111278
32924.9
-105245
30989.2
-99524.6
29152.3
-94093.3
27398.5
-88926.3
25734.4
-84026.8
24153.8
-79375.2
22640.8
-74947
21207.6
-70750.2
19838.6
-66760.6
18545.7
-62972.4
17309.4
-59366.2
16128.3
-55940.9
15005.2
-52685.8
13938.7
-49590.9
12918.8
-46646.1
11952.7
-43845.2
11030.6
-41182.4
10147.1
-38639.2
9309.42
-36222
8511.99
-33916.8
7746.08
-31713.8
7016.21
-29613.7
6320.44
-27605.6
5654.94
-25683.2
5018.63
-23840.7
4410.01
-22072.7
3826.54
-20372
3267.35
-18733.5
2730.68
-17151.8
2215.87
-15621.5
1721.43
-14141
1248.56
-12702.2
796.722
-11334.9
373.109
-9984.63
-8936.31
701919
-1.80558e+06
666499
-1.71495e+06
632740
-1.62907e+06
600710
-1.54722e+06
570157
-1.46927e+06
541222
-1.39529e+06
513716
-1.3249e+06
487525
-1.25793e+06
462725
-1.19437e+06
439108
-1.1339e+06
416681
-1.07649e+06
395434
-1.02198e+06
375146
-970058
356000
-920881
337773
-874047
320497
-829664
304055
-787377
288428
-747296
273651
-709216
259608
-673042
246234
-638621
233565
-606058
221538
-575049
210090
-545596
199260
-517649
188936
-491106
179157
-465918
169864
-441984
161045
-419254
152643
-397626
144699
-377153
137155
-357731
129951
-339211
123132
-321644
116639
-305028
110518
-289213
104659
-274150
99110.5
-259897
93833.8
-246360
88828.3
-233503
84065.8
-221291
79540.3
-209698
75247.1
-198695
71157.8
-188242
67278.8
-178323
63593.8
-168907
60085.5
-159960
56755.8
-151472
53587.1
-143407
50579.1
-135754
47721.2
-128490
44998.8
-121587
42415.7
-115038
39953.7
-108816
37620.1
-102911
35393.6
-97298.2
33276.6
-91976.4
31271.2
-86921.2
29357.2
-82113
27536.8
-77555
25812.8
-73223.2
24165
-69102.6
22600.8
-65196.6
21104.8
-61476.6
19689
-57950.7
18342.7
-54594.7
17060
-51403.3
15835.2
-48366.3
14675.2
-45486.3
13566.1
-42736.2
12510.5
-40127
11507.3
-37636.2
10546.9
-35261.8
9632.23
-33002.2
8764.3
-30846.1
7934.7
-28784.3
7142.33
-26813.4
6385.98
-24927.1
5663.35
-23118.3
4972.14
-21381.8
4311.11
-19711.4
3677.52
-18100.4
3070.48
-16545.3
2488.12
-15039.6
1929.06
-13582.6
1394.82
-12168.6
882.543
-10823.3
404.602
-9507.21
-8532.48
791438
-1.7634e+06
751460
-1.67497e+06
713350
-1.59095e+06
677176
-1.51104e+06
642864
-1.43496e+06
610156
-1.36258e+06
579097
-1.29384e+06
549659
-1.22849e+06
521661
-1.16637e+06
495083
-1.10732e+06
469861
-1.05127e+06
445814
-997931
423073
-947318
401428
-899235
380898
-853516
361373
-810139
342879
-768884
325301
-729718
308573
-692488
292730
-657198
277706
-623597
263386
-591738
249808
-561471
236960
-532748
224728
-505417
213102
-479480
202072
-454888
191578
-431489
181607
-409284
172155
-388173
163209
-368207
154611
-349134
146558
-331157
138886
-313973
131543
-297685
124570
-282240
118011
-267591
111746
-253632
105798
-240412
100141
-227846
94767.4
-215917
89666.7
-204597
84818.1
-193847
80212.9
-183637
75832.4
-173943
71671.8
-164747
67718.9
-156007
63959.3
-147712
60389.1
-139837
56996.9
-132362
53768.4
-125262
50701.8
-118521
47783.4
-112120
45016
-106049
42377.8
-100273
39876.1
-94796.5
37494
-89594.5
35224.8
-84652.2
33075.3
-79963.8
31025.4
-75505.2
29077.2
-71275.3
27224.6
-67250.2
25461
-63433.2
23784.7
-59800.6
22189.5
-56355.7
20669.3
-53074.8
19227
-49961.2
17856.5
-46995.9
16543.4
-44173.4
15299.2
-41492.2
14114
-38941.9
12982
-36504.4
11910.3
-34190.3
10885.4
-31977.4
9908.14
-29869
8976.26
-27852.6
8087.94
-25925.3
7239.33
-24078.6
6429.43
-22308.6
5655.1
-20607.7
4913.95
-18970.4
4204.42
-17391
3524.14
-15865.2
2871.65
-14387.3
2245.05
-12956
1644.92
-11568.4
1068.54
-10246.9
529.428
-8967.8
-8002.51
878831
-1.71655e+06
834345
-1.63048e+06
792090
-1.5487e+06
751881
-1.47083e+06
713729
-1.39681e+06
677486
-1.32633e+06
643052
-1.25941e+06
610340
-1.19578e+06
579219
-1.13525e+06
549712
-1.07781e+06
521665
-1.02322e+06
495094
-971361
469775
-921998
445793
-875254
422990
-830713
401327
-788476
380745
-748302
361239
-710212
342722
-673972
325093
-639569
308381
-606885
292525
-575882
277459
-546406
263121
-518410
249500
-491796
236635
-466615
224314
-442566
212676
-419852
201615
-398222
191169
-377727
181130
-358167
171741
-339745
162692
-322108
154127
-305408
146039
-289597
138322
-274523
130968
-260237
124027
-246690
117408
-233793
111127
-221565
105163
-209953
99490.4
-198925
94100.7
-188457
88983.9
-178520
84121.4
-169080
79495.1
-160120
75105.2
-151617
70933
-143540
66967.1
-135871
63193
-128588
59611.5
-121680
56207.2
-115117
52967.2
-108880
49888.3
-102970
46967.1
-97351.9
44183.5
-92013
41538.9
-86950.1
39026.8
-82140.3
36635.6
-77572.7
34362.9
-73232.8
32197.6
-69110.2
30147
-65199.8
28190.9
-61477.3
26336.4
-57946.4
24564
-54583.5
22885.3
-51396.2
21281.1
-48357.1
19758.3
-45473.4
18311.3
-42726.6
16934.1
-40115.1
15616.8
-37624.9
14370.7
-35258.4
13181.6
-33001.4
12048.4
-30844.4
10966.3
-28787.1
9936.55
-26823
8954.56
-24943.5
8017.74
-23142.1
7123.2
-21414.3
6268.41
-19753.2
5450.84
-18153.2
4668.05
-16608.7
3917.83
-15115.5
3197.81
-13667.8
2506.16
-12265
1843.1
-10906
1205.61
-9610.22
605.401
-8368.18
-7398.05
963781
-1.66524e+06
914944
-1.58164e+06
868551
-1.5023e+06
824549
-1.42683e+06
782634
-1.35489e+06
742912
-1.28661e+06
705128
-1.22163e+06
669262
-1.15991e+06
635247
-1.10124e+06
602849
-1.04541e+06
572141
-992512
542911
-942131
515196
-894283
488858
-848916
463882
-805737
440107
-764701
417569
-725764
396128
-688771
375804
-653648
356500
-620265
338218
-588603
320785
-558449
304242
-529864
288528
-502696
273630
-476898
259435
-452420
245983
-429114
233216
-407084
221071
-386078
209541
-366197
198619
-347245
188193
-329319
178309
-312223
168957
-296057
160032
-280671
151575
-266067
143538
-252200
135883
-239036
128630
-226540
121739
-214674
115188
-203402
108964
-192701
103053
-182547
97435
-172902
92095.7
-163741
87026.2
-155051
82203.7
-146795
77624
-138960
73269.4
-131516
69135.7
-124454
65201.7
-117746
61468.9
-111384
57918.8
-105330
54544.9
-99596.2
51335
-94142.1
48286.5
-88964.6
45387.4
-84051.1
42630.4
-79383.5
40009.1
-74951.6
37521.1
-70745.1
35155
-66744.3
32899.8
-62944.8
30758.1
-59335.9
28723.6
-55912
26789.9
-52650
24942
-49548.6
23195.9
-46611.1
21527.9
-43805.6
19945.1
-41144
18433.2
-38603.4
17003.4
-36195.1
15633.2
-33888.4
14333.6
-31702
13094.5
-29605.4
11916.6
-27609.4
10793.5
-25700.1
9722.33
-23872.5
8701.58
-22121.5
7726.76
-20439.7
6796.07
-18822.7
5906.41
-17263.7
5055.16
-15757.6
4239.28
-14299.7
3456.99
-12885.5
2704.97
-11513
1983.24
-10184.1
1288.7
-8915.51
633.074
-7712.1
-6764.18
1.04613e+06
-1.60956e+06
993165
-1.52867e+06
942832
-1.45197e+06
894964
-1.37896e+06
849564
-1.30949e+06
806420
-1.24347e+06
765424
-1.18063e+06
726488
-1.12098e+06
689501
-1.06425e+06
654375
-1.01029e+06
621000
-959137
589340
-910470
559277
-864220
530650
-820289
503482
-778568
477764
-738983
453270
-701269
430042
-665543
407948
-631555
386995
-599311
367050
-568658
348159
-539557
330209
-511914
313126
-485613
296960
-460732
281547
-437006
266976
-414543
253085
-393193
239917
-372910
227413
-353693
215514
-335345
204212
-318016
193498
-301510
183317
-285875
173611
-270965
164423
-256879
155693
-243469
147399
-230742
139516
-218657
132024
-207182
124913
-196290
118154
-185942
111735
-176128
105629
-166796
99835.8
-157948
94328
-149543
89090.9
-141558
84116.2
-133986
79395.6
-126796
74902.3
-119961
70637.7
-113482
66572.8
-107319
62721.6
-101479
59056
-95930.7
55574.2
-90660.4
52267.9
-85658.5
49120.3
-80903.7
46130.4
-76393.8
43286.2
-72107.5
40584.8
-68043.9
38015.7
-64175.4
35571.5
-60500.8
33250.8
-57015.4
31042.6
-53704
28940.4
-50548
26947.2
-47555.5
25047.6
-44711.7
23244.6
-42002.8
21523.6
-39423.2
19895.7
-36975.6
18338.2
-34637.8
16861.9
-32412.3
15453.4
-30293.6
14116.1
-28268.3
12841.3
-26334.7
11627.1
-24486.2
10470.7
-22716.3
9367.55
-21018.6
8316.38
-19388.8
7312.32
-17819
6353.58
-16305.4
5436.53
-14841
4557.96
-13421.7
3715.17
-12043.3
2905.35
-10703.8
2127.46
-9406.95
1376.76
-8165.78
667.88
-7003.85
-6097.42
1.12556e+06
-1.54961e+06
1.06861e+06
-1.47172e+06
1.01448e+06
-1.39783e+06
963062
-1.32754e+06
914231
-1.26066e+06
867760
-1.197e+06
823731
-1.1366e+06
781817
-1.07906e+06
742022
-1.02446e+06
704311
-972574
668367
-923193
634300
-876403
601926
-831846
571181
-789543
541990
-749377
514243
-711237
487919
-674945
462899
-640523
439175
-607831
416571
-576707
395180
-547267
374791
-519168
355481
-492604
337151
-467283
319681
-443262
303157
-420482
287425
-398811
272522
-378291
258289
-358677
244818
-340222
232050
-322577
219878
-305844
208292
-289924
197338
-274921
186955
-260583
177032
-246955
167630
-234067
158697
-221810
150215
-210174
142152
-199120
134494
-188633
127221
-178669
120303
-169210
113738
-160231
107495
-151704
101561
-143610
95931.9
-135928
90576.1
-128630
85487.4
-121707
80655
-115128
76060
-108887
71696.6
-102956
67544.5
-97327
63603.3
-91989.6
59854.4
-86911.6
56287.3
-82091.5
52903.9
-77520.5
49686.5
-73176.5
46628.4
-69049.6
43719.4
-65135.1
40956.5
-61412.7
38328.8
-57873.4
35829.5
-54516.3
33452.1
-51326.9
31199.4
-48295.5
29051.7
-45408
27007.4
-42667.6
25064.8
-40060.3
23221.8
-37580.4
21464.4
-35218.3
19794.9
-32968.4
18207.6
-30825.2
16692.7
-28778.9
15253.2
-26829
13883.4
-24965.1
12578.4
-23181.3
11335.5
-21473.5
10150.9
-19834.2
9020.67
-18258.7
7942.48
-16740.9
6912.06
-15275
5926.31
-13855.3
4981.9
-12477.3
4075.51
-11136.9
3203.65
-9831.9
2364.17
-8567.22
1552.49
-7353.8
782.733
-6233.43
-5313.68
1.2021e+06
-1.48564e+06
1.14131e+06
-1.41092e+06
1.08352e+06
-1.34004e+06
1.02858e+06
-1.2726e+06
976414
-1.20849e+06
926856
-1.14744e+06
879770
-1.08951e+06
835086
-1.03438e+06
792589
-981959
752236
-932221
713974
-884931
677517
-839946
642953
-797282
610157
-756747
578967
-718188
549304
-681573
521216
-646858
494478
-613785
469125
-582478
445046
-552629
422124
-524345
400394
-497438
379753
-471962
360126
-447657
341556
-424692
323838
-402764
307056
-382028
291050
-362285
275962
-343589
261533
-325793
247854
-308899
234869
-292858
222569
-277624
210798
-263149
199649
-249434
189115
-236421
179066
-224017
169525
-212269
160454
-201103
151840
-190506
143655
-180448
135879
-170893
128493
-161824
121477
-153215
114808
-145036
108476
-137278
102454
-129906
96733.3
-122909
91295.7
-116269
86132.7
-109965
81222.5
-103976
76555.7
-98288.9
72127.2
-92898.6
67912.7
-87775.2
63906.3
-82905.3
60104.2
-78289.6
56490.3
-73906.8
53047.8
-69734.2
49785.6
-65787.6
46675.1
-62024.8
43721.5
-58459.2
40921.6
-55073.7
38255.3
-51850.2
35715.9
-48787.7
33305.9
-45885.7
31015.2
-43117.5
28837.1
-40489.7
26765.6
-37989
24794.8
-35609.7
22918.6
-33342.3
21135.5
-31185.5
19439.6
-29129.4
17829
-27168.5
16294.2
-25294.4
14833.2
-23504.3
13442.7
-21790.9
12117.5
-20148.6
10855.3
-18572.2
9651.56
-17055.3
8502.5
-15592.2
7404.63
-14177.6
6354.73
-12805.8
5348.57
-11471.7
4382.3
-10171.3
3451.77
-8902.11
2554.62
-7670.89
1685.59
-6485.91
856.505
-5405.01
-4458.31
1.27536e+06
-1.41782e+06
1.21092e+06
-1.34648e+06
1.14962e+06
-1.27873e+06
1.09139e+06
-1.21437e+06
1.03603e+06
-1.15313e+06
983457
-1.09486e+06
933502
-1.03956e+06
886037
-986910
841046
-936969
798200
-889375
757528
-844259
718954
-801373
682267
-760595
647386
-721866
614310
-685111
582913
-650177
553073
-617017
524728
-585441
497769
-555519
472225
-527084
447940
-500061
424892
-474390
402913
-449983
382160
-426904
362357
-404889
343604
-384011
325777
-364202
308874
-345381
292742
-327457
277463
-310514
262932
-294368
249143
-279068
236086
-264568
223655
-250719
211839
-237619
200593
-225175
189928
-213353
179796
-202137
170170
-191477
161031
-181366
152340
-171757
144090
-162643
136244
-153978
128792
-145763
121716
-137960
114991
-130553
108601
-123516
102529
-116837
96760.9
-110501
91275.6
-104480
86067.1
-98768
81118
-93339.9
76414.1
-88194.9
71940.1
-83301.3
67692.1
-78657.4
63654
-74251.6
59813.3
-70066.2
56174.4
-66095.5
52702.9
-62316.3
49410.3
-58732.4
46277.1
-55326.3
43298.5
-52095.3
40472.2
-49024.1
37787.8
-46103.5
35224
-43322.2
32797.5
-40691.1
30488.8
-38181.2
28291.7
-35792.2
26200.4
-33518.6
24217.2
-31359.3
22331.9
-29300.3
20538.8
-27336.4
18828.3
-25458.2
17204.2
-23670.4
15658.3
-21958.5
14187.4
-20320.2
12786.6
-18748
11452.5
-17238.2
10180.6
-15783.5
8967.51
-14379.2
7809.43
-13019.6
6701.62
-11698.1
5640.51
-10410.6
4621.78
-9152.42
3640.66
-7920.81
2692.64
-6722.51
1773.2
-5566.11
890.728
-4521.64
-3566.39
1.34528e+06
-1.34624e+06
1.27727e+06
-1.27847e+06
1.21268e+06
-1.21414e+06
1.15125e+06
-1.15294e+06
1.09287e+06
-1.09475e+06
1.03748e+06
-1.03947e+06
984774
-986855
934758
-936894
887196
-889406
842072
-844251
799167
-801353
758457
-760663
719766
-721904
683035
-685135
648133
-650208
614955
-616999
583435
-585497
553559
-555564
525149
-527110
498163
-500097
472509
-474408
448203
-450084
425119
-426899
403147
-404932
382271
-384014
362483
-364223
343680
-345399
325744
-327446
308823
-310536
292702
-294393
277376
-279043
262839
-264531
248982
-250711
235869
-237605
223398
-225148
211548
-213325
200299
-202104
189605
-191443
179445
-181318
169797
-171718
160627
-162587
151914
-153930
143647
-145711
135784
-137900
128309
-130485
121210
-123454
114467
-116773
108060
-110430
101972
-104414
96188.6
-98696.6
90685.5
-93265
85464
-88118.6
80499
-83230
75781
-78583.4
71301
-74177.6
67043
-69993.8
62993.5
-66016.9
59142.9
-62245.1
55487.2
-58660.8
52015.8
-55261.2
48716.4
-52027.1
45575.8
-48954.9
42591.8
-46040.2
39753
-43265
37064.4
-40633.8
34500.1
-38127
32062.2
-35743.6
29750.1
-33480.2
27552.7
-31321.4
25459.9
-29266.7
23470.2
-27310.8
21579.2
-25445.6
19783.5
-23662.7
18073.9
-21961
16448.2
-20333
14900.5
-18772.8
13428
-17275.7
12025.9
-15836.3
10690.2
-14448.1
9416.74
-13106
8201.16
-11804.4
7040.02
-10537.4
5928.12
-9299.24
4860.36
-8085.33
3831.7
-6892.97
2837.13
-5728.92
1869.72
-4600.1
933.852
-3586.62
-2634.05
1.41166e+06
-1.27127e+06
1.34037e+06
-1.20717e+06
1.27253e+06
-1.14629e+06
1.20813e+06
-1.08855e+06
1.14692e+06
-1.03354e+06
1.08876e+06
-981306
1.0335e+06
-931590
981051
-884448
931146
-839502
883821
-796926
838846
-756379
796053
-717870
755485
-681336
716958
-646608
680318
-613569
645579
-582260
612543
-552462
581144
-524165
551307
-497273
523024
-471815
496142
-447526
470579
-424521
446341
-402661
423303
-381894
401413
-362124
380612
-343422
360884
-325671
342170
-308731
324317
-292683
307359
-277435
291348
-263032
276070
-249253
261548
-236190
247762
-223819
234671
-212057
222238
-200892
210424
-190290
199197
-180215
188542
-170664
178406
-161581
168787
-152969
159643
-144786
150954
-137022
142700
-129647
134864
-122649
127411
-116002
120331
-109693
113606
-103705
107212
-98019.6
101135
-92620
95366.6
-87496.9
89885.3
-82637.4
84672.9
-78017.7
79719.5
-73630.1
75013.5
-69471.8
70542.3
-65522.8
66291.6
-61766.3
62255.2
-58208.9
58416.2
-54821.9
54764.8
-51610
51296
-48558.5
48004.7
-45663.9
44871.3
-42907.1
41893.6
-40287.5
39063.7
-37804.1
36376.6
-35440.1
33822.3
-33189.4
31392.5
-31050.6
29082.4
-29011.5
26885.8
-27070.3
24796.7
-25221.9
22812.1
-23461.1
20924.1
-21774.9
19128.1
-20165.1
17419.6
-18624.6
15793.8
-17147.1
14246.5
-15728.5
12772.2
-14362.2
11367.6
-13043.6
10028.1
-11766.5
8748.86
-10525.2
7525.35
-9313.85
6352.64
-8126.45
5225.64
-6958.17
4137.66
-5804.74
3081.82
-4672.69
2051.52
-3569.41
1041.47
-2575.25
-1590.33
1.47428e+06
-1.19289e+06
1.39983e+06
-1.13272e+06
1.32909e+06
-1.07554e+06
1.2618e+06
-1.02126e+06
1.19787e+06
-969613
1.13715e+06
-920581
1.07949e+06
-873936
1.02464e+06
-829597
972627
-787486
923124
-747422
876155
-709410
831573
-673289
789181
-638944
748882
-606309
710653
-575340
674282
-545889
639790
-517969
607030
-491405
575928
-466171
546323
-442210
518258
-419460
491571
-397834
466231
-377321
442151
-357814
419314
-339287
397596
-321704
376901
-304976
357331
-289161
338752
-274104
321069
-259753
304225
-246188
288290
-233317
273152
-221052
258757
-209424
245083
-198382
232089
-187898
219745
-177946
208021
-168492
196878
-159520
186294
-150998
176237
-142912
166687
-135236
157610
-127945
148987
-121023
140789
-114451
133009
-108222
125612
-102296
118583
-96675.7
111901
-91338.1
105559
-86278
99530.9
-81468.9
93798.5
-76905.1
88353.8
-72573.2
83185.2
-68461.6
78271.2
-64558
73593.8
-60845.5
69157.3
-57329.9
64933.9
-53985.8
60927.1
-50815.3
57119.7
-47802.7
53498.2
-44937.3
50052.9
-42218.9
46783.4
-39637.9
43679.2
-37183.4
40723.2
-34848.3
37915.1
-32632.2
35246.9
-30521.3
32709.6
-28513.5
30301
-26603.1
28010.6
-24780.1
25834.1
-23045.6
23761.6
-21388.8
21792.4
-19805.8
19920.4
-18293.3
18139.7
-16844.1
16445.7
-15453.3
14833.3
-14116.4
13298.9
-12828.1
11836.7
-11581.7
10442.6
-10372.9
9112.36
-9195.34
7840.56
-8042.54
6621.86
-6908.35
5450.39
-5787.44
4319.2
-4674.48
3219.06
-3573.77
2138.5
-2490.79
1056.9
-1495.16
-536.824
1.53308e+06
-1.11151e+06
1.45561e+06
-1.05525e+06
1.38205e+06
-1.00199e+06
1.31212e+06
-951322
1.24568e+06
-903173
1.18255e+06
-857456
1.12259e+06
-813968
1.0656e+06
-772615
1.01144e+06
-733323
960025
-696007
911196
-660581
864770
-626863
820686
-594861
778836
-564459
739043
-535546
701290
-508136
665373
-482053
631269
-457301
598918
-433821
568160
-411452
538920
-390220
511197
-370111
484838
-350962
459818
-332794
436028
-315497
413416
-299092
392025
-283585
371634
-268771
352244
-254714
333854
-241363
316414
-228748
299800
-216704
284037
-205289
269057
-194444
254830
-184155
241317
-174384
228474
-165103
216274
-156292
204686
-147932
193676
-139988
183219
-132455
173277
-125294
163836
-118504
154862
-112049
146342
-105931
138241
-100122
130544
-94598.9
123235
-89367.4
116294
-84396.5
109691
-79675.6
103420
-75197.9
97457.8
-70943.1
91794.6
-66910.2
86414.1
-63081.2
81297.6
-59441.6
76441.9
-55990
71824.8
-52713
67436.6
-49597.8
63268.4
-46647.3
59306.6
-43841.2
55540.5
-41171.3
51962.2
-38640.8
48563.8
-36239.7
45333.7
-33953.6
42263.5
-31778.3
39344
-29713
36570.4
-27747.9
33937.7
-25881
31432.1
-24097.7
29051
-22399.1
26787.7
-20782.5
24637.1
-19238.3
22593.5
-17762.4
20650.1
-16350
18802.3
-14996.4
17045.4
-13696.5
15374
-12445.1
13783.2
-11237.3
12268.7
-10067.3
10825.8
-8929.96
9449.18
-7818.71
8134.32
-6727.61
6875.29
-5649.2
5665.83
-4577.79
4497.6
-3505.95
3360.16
-2435.83
2232.41
-1362.45
1065.33
-326.135
531.923
1.58774e+06
-1.0271e+06
1.50763e+06
-975140
1.43143e+06
-925786
1.35906e+06
-878951
1.29026e+06
-834365
1.22486e+06
-792064
1.16275e+06
-751858
1.10377e+06
-713629
1.04769e+06
-677244
994481
-642799
943845
-609945
895809
-578827
850154
-549206
806813
-521118
765617
-494350
726513
-469033
689319
-444858
654033
-422015
620493
-400282
588634
-379593
558396
-359982
529661
-341375
502326
-323627
476426
-306894
451808
-290879
428412
-275697
406172
-261345
385028
-247627
364979
-234666
345977
-222360
327863
-210634
310668
-199508
294335
-188956
278822
-178932
264082
-169416
250076
-160379
236775
-151802
224137
-143654
212128
-135923
200724
-128584
189886
-121618
179590
-114997
169802
-108716
160514
-102761
151684
-97100.2
143285
-91723.4
135318
-86631.8
127743
-81792.3
120543
-77196.6
113705
-72838.2
107203
-68695.6
101033
-64773.6
95163.2
-61040.5
89587.9
-57506
84289.7
-54143.6
79255.6
-50956.1
74470.3
-47927.8
69926.5
-45054.2
65606.8
-42327.8
61496.9
-39731.5
57597.8
-37272.4
53895.2
-34938.5
50368.5
-32713.2
47018.5
-30603.8
43841.3
-28601.3
40819.6
-26691.5
37944
-24872.6
35210.9
-23148.1
32618.6
-21505.5
30154.2
-19934.9
27810.7
-18439.2
25583.3
-17011
23465.3
-15644.7
21452.8
-14337.7
19538.8
-13082.7
17718.6
-11876.5
15987.2
-10714
14339.5
-9589.9
12770.8
-8498.88
11276.1
-7435.7
9849.93
-6392.95
8487.14
-5365.36
7182.35
-4345.07
5928.18
-3324.49
4715.82
-2294.76
3533.15
-1254.85
2355.4
-187.365
1166.67
860.534
1694.61
1.63839e+06
-940161
1.55566e+06
-892409
1.47712e+06
-847239
1.40239e+06
-804220
1.33146e+06
-763440
1.26402e+06
-724620
1.1999e+06
-687739
1.13904e+06
-652766
1.08124e+06
-619448
1.02628e+06
-587838
974115
-557782
924524
-529236
877416
-502099
832644
-476346
790164
-451870
749813
-428683
711467
-406512
675066
-385614
640449
-365665
607600
-346744
576365
-328747
546685
-311695
518536
-295478
491772
-280131
466327
-265434
442242
-251612
419264
-238366
397484
-225847
376805
-213987
357116
-202671
338441
-191959
320694
-181762
303844
-172105
287828
-162916
272614
-154202
258163
-145927
244431
-138070
231390
-130613
218996
-123528
207222
-116811
196032
-110428
185406
-104371
175311
-98621.3
165713
-93163.4
156594
-87980.6
147937
-83066.4
139706
-78401.3
131883
-73969.2
124452
-69766.3
117393
-65778.9
110691
-61993.3
104311
-58394.2
98258.9
-54988.4
92500
-51747.3
87031.1
-48674.8
81836.5
-45761.7
76898.6
-42990.1
72204.6
-40360.4
67742.9
-37866.3
63509.5
-35498.4
59486
-33249.1
55656.4
-31109.1
52023.7
-29080.7
48565.8
-27146
45283.3
-25319
42161.3
-23569.6
39199.1
-21910.6
36380.7
-20329.9
33700.6
-18825.6
31156.3
-17390.7
28737.6
-16020.6
26438.6
-14712.1
24254.4
-13460.6
22177
-12260.4
20202.4
-11108.2
18324.5
-9998.78
16538.3
-8927.87
14838.6
-7890.27
13220.7
-6880.95
11678.1
-5893.14
10207.4
-4922.2
8801.64
-3959.52
7455.18
-2998.42
6160.71
-2029.74
4908.23
-1041.85
3683
-28.9745
2467.09
1029.52
1264.89
2064.72
2962.54
1.68461e+06
-850647
1.59965e+06
-807441
1.51879e+06
-766383
1.44203e+06
-727462
1.36906e+06
-690465
1.29975e+06
-655310
1.23389e+06
-621878
1.1713e+06
-590181
1.11184e+06
-559989
1.05532e+06
-531316
1.00169e+06
-504153
950687
-478230
902274
-453686
856308
-430380
812611
-408173
771074
-387145
731687
-367126
694181
-348108
658604
-330088
624781
-312921
592719
-296685
562241
-281217
533243
-266481
505668
-252556
479557
-239323
454707
-226762
431143
-214802
408751
-203455
387449
-192686
367231
-182454
348010
-172738
329765
-163517
312424
-154765
295959
-146451
280306
-138549
265444
-131065
251318
-123944
237898
-117194
225152
-110782
213040
-104698
201531
-98919.3
190600
-93440.7
180211
-88232.1
170342
-83294.5
160969
-78608.2
152061
-74157.8
143594
-69934.6
135550
-65925.7
127907
-62123.2
120647
-58519.2
113745
-55091.4
107192
-51841
100958
-48754.6
95038.3
-45827.6
89417.7
-43054.4
84069
-40413.2
78991.9
-37913.2
74164.8
-35533.5
69583.4
-33285
65225.6
-31140.8
61081.2
-29105
57146.2
-27174.3
53406.2
-25341
49861
-23601
46481.5
-21939.8
43273
-20361.4
40227
-18864.8
37332.3
-17435.4
34580.6
-16074.1
31966
-14776.4
29482.6
-13537.4
27122
-12351.8
24878.7
-11217.5
22746.7
-10128.7
20720.1
-9081.82
18794
-8072.85
16962.7
-7096.87
15220.5
-6148.38
13562.4
-5223.21
11984.3
-4315.46
10479.3
-3417.64
9042.64
-2523.51
7667.22
-1623.77
6346.1
-709.641
5066.74
236.166
3820.79
1215.21
2589.41
2258.6
1374.64
3277.73
4334.48
1.72655e+06
-758995
1.63937e+06
-720263
1.55664e+06
-683645
1.47797e+06
-648792
1.40316e+06
-615653
1.33215e+06
-584303
1.26466e+06
-554386
1.20048e+06
-526009
1.13955e+06
-499059
1.08172e+06
-473484
1.02669e+06
-449119
974466
-426009
924882
-404102
877722
-383220
832928
-363379
790366
-344583
749955
-326716
711607
-309760
675124
-293605
640497
-278294
607600
-263789
576289
-249906
546663
-236856
518438
-224330
491669
-212555
466190
-201282
442009
-190622
419036
-180483
397208
-170857
376479
-161725
356792
-153050
338086
-144812
320309
-136987
303419
-129562
287382
-122512
272141
-115824
257664
-109468
243911
-103441
230841
-97712.3
218422
-92279.4
206629
-87126.3
195419
-82230.9
184769
-77582.4
174651
-73176.2
165037
-68994.3
155900
-65020.6
147220
-61255
138977
-57682.8
131144
-54290.1
123697
-51072.3
116620
-48014.6
109900
-45121.4
103511
-42365.4
97446.6
-39763.6
91674.4
-37282.4
86198.6
-34937.6
80987.1
-32701.8
76042
-30588.6
71340.2
-28583.5
66868.9
-26669.7
62626.4
-24862.7
58597.2
-23145.3
54763.6
-21507.6
51118.3
-19955.8
47661.8
-18483.5
44375.1
-17074.9
41249.5
-15739.4
38281.7
-14467.7
35461.6
-13254.1
32782
-12097
30235.1
-10990.7
27815.6
-9932.38
25516.2
-8918.28
23331.5
-7944.05
21255
-7005.44
19281.3
-6099.23
17404.8
-5220.4
15620.3
-4363.93
13922
-3524.96
12304.8
-2698.19
10763.8
-1876.55
9292.55
-1052.13
7884.26
-215.21
6530.37
644.64
5220.69
1546.49
3949.83
2486.91
2685.65
3523.91
1441.94
4523.05
5778.81
1.76388e+06
-665375
1.6749e+06
-631287
1.5903e+06
-599045
1.50995e+06
-568440
1.43364e+06
-539343
1.36104e+06
-511702
1.2921e+06
-485447
1.22661e+06
-460515
1.16439e+06
-436844
1.10524e+06
-414329
1.04908e+06
-392967
995760
-372685
945013
-353356
896874
-335081
851129
-317634
807676
-301130
766432
-285472
727164
-270491
689935
-256376
654548
-242907
620900
-230141
589019
-218025
558641
-206478
529883
-195572
502456
-185128
476462
-175288
451750
-165910
428279
-157011
405988
-148566
384808
-140545
364683
-132925
345560
-125689
327404
-118831
310154
-112312
293764
-106122
278185
-100246
263388
-94670.7
249327
-89380.6
235974
-84359
223290
-79595.6
211230
-75066.6
199775
-70775.5
188891
-66699.2
178551
-62836.3
168723
-59166.6
159394
-55691
150520
-52382
142091
-49253.1
134082
-46281.8
126474
-43464.3
119243
-40783.3
112368
-38246.7
105847
-35845
99638.8
-33555.3
93745.8
-31389.6
88142.8
-29334.8
82822.6
-27381.7
77764.4
-25530.7
72956.4
-23775.7
68395.7
-22109.2
64054.9
-20522.1
59931.3
-19021.9
56012.8
-17589.4
52293.2