/*--------------------------------*- C++ -*----------------------------------*\
  =========                 |
  \\      /  F ield         | OpenFOAM: The Open Source CFD Toolbox
   \\    /   O peration     | Website:  https://openfoam.org
    \\  /    A nd           | Version:  11
     \\/     M anipulation  |
\*---------------------------------------------------------------------------*/
FoamFile
{
    format      ascii;
    class       volVectorField;
    location    "50";
    object      U;
}
// * * * * * * * * * * * * * * * * * * * * * * * * * * * * * * * * * * * * * //

dimensions      [0 1 -1 0 0 0 0];

internalField   nonuniform List<vector> 
31595
(
(7.34921 -0.0122256 -2.03412e-20)
(7.35544 -0.0088981 1.09265e-20)
(7.35281 -0.00892813 3.73037e-20)
(7.35428 -0.00934801 4.21484e-20)
(7.35341 -0.00957678 0)
(7.3537 -0.00983074 0)
(7.35309 -0.0102101 0)
(7.35288 -0.0106137 3.62599e-20)
(7.3523 -0.0111038 1.80937e-21)
(7.35181 -0.0116374 0)
(7.35116 -0.012213 0)
(7.35051 -0.0128191 2.87557e-20)
(7.34977 -0.0134665 -3.02731e-20)
(7.34899 -0.0141542 3.59677e-20)
(7.34815 -0.0148768 -3.78664e-20)
(7.34727 -0.0156223 4.37775e-20)
(7.34635 -0.01638 0)
(7.3454 -0.0171437 -5.51804e-20)
(7.34442 -0.0179113 1.17982e-19)
(7.34343 -0.0186858 -3.36076e-20)
(7.34243 -0.0194737 3.53816e-20)
(7.34142 -0.0202859 0)
(7.34041 -0.0211341 0)
(7.33941 -0.0220311 4.83633e-20)
(7.33842 -0.0229885 -2.45681e-20)
(7.33747 -0.0240174 9.11094e-22)
(7.33655 -0.0251272 -6.11629e-20)
(7.33568 -0.0263277 -3.36566e-20)
(7.33485 -0.0276294 7.17828e-20)
(7.33409 -0.0290462 -7.74949e-20)
(7.3334 -0.0305919 0)
(7.33279 -0.0322856 -2.32227e-20)
(7.33226 -0.0341457 2.41812e-20)
(7.33182 -0.0361965 -2.54592e-20)
(7.33147 -0.038461 2.69821e-20)
(7.33123 -0.0409698 -2.92328e-20)
(7.3311 -0.0437528 1.41813e-20)
(7.33109 -0.0468467 4.96989e-20)
(7.3312 -0.0502856 0)
(7.33144 -0.0541108 -1.81436e-20)
(7.33181 -0.0583608 3.75052e-20)
(7.33229 -0.0630793 0)
(7.33289 -0.0683159 0)
(7.33363 -0.0741236 -1.12071e-20)
(7.33451 -0.0805465 4.65259e-20)
(7.33543 -0.0876387 0)
(7.33644 -0.0954591 -1.17526e-20)
(7.33749 -0.104062 2.34538e-20)
(7.33859 -0.113512 -1.23362e-20)
(7.33973 -0.123873 1.1142e-20)
(7.34087 -0.135215 -3.54438e-20)
(7.34198 -0.147604 3.66071e-21)
(7.34304 -0.161107 -2.273e-20)
(7.34403 -0.175791 3.05124e-20)
(7.34491 -0.191738 -5.70762e-21)
(7.34565 -0.209025 -1.27613e-20)
(7.34625 -0.227746 -7.31464e-21)
(7.34666 -0.247995 -7.15732e-21)
(7.34685 -0.269879 -9.123e-21)
(7.34678 -0.293509 1.53118e-20)
(7.34642 -0.319012 -1.67411e-21)
(7.34572 -0.346517 6.41274e-21)
(7.34467 -0.376158 -4.23501e-21)
(7.34323 -0.408102 -1.26576e-21)
(7.34134 -0.442531 5.57378e-21)
(7.33898 -0.479635 -1.50289e-20)
(7.3361 -0.519623 -6.74736e-21)
(7.3327 -0.562748 1.6719e-21)
(7.32871 -0.609296 1.62189e-20)
(7.32412 -0.659588 2.67322e-21)
(7.31889 -0.713976 -6.92449e-21)
(7.31302 -0.772879 8.48949e-23)
(7.3065 -0.836802 7.43482e-21)
(7.29933 -0.906248 0)
(7.29155 -0.982051 1.0696e-20)
(7.28319 -1.06458 0)
(7.27439 -1.15577 5.81589e-22)
(7.26528 -1.25441 0)
(7.25605 -1.36715 0)
(7.24766 -1.48391 0)
(7.23841 -1.63171 2.97661e-21)
(7.23634 -1.76244 -3.82338e-21)
(7.22331 -1.97838 1.04237e-20)
(7.25043 -2.09744 6.31508e-21)
(7.20641 -2.45867 -5.82843e-21)
(7.34717 -2.50603 -7.10324e-21)
(7.16858 -3.14695 -8.26135e-21)
(7.82378 -3.13486 1.70456e-20)
(6.94195 -4.30297 -1.92847e-20)
(7.35245 -0.0106276 7.04089e-20)
(7.35378 -0.00862736 3.43421e-20)
(7.35388 -0.00809856 3.03953e-20)
(7.35379 -0.00868881 -1.23336e-19)
(7.35365 -0.00891672 0)
(7.35344 -0.00918751 0)
(7.35308 -0.00953453 6.12045e-20)
(7.35267 -0.00991903 0)
(7.35217 -0.0103543 0)
(7.35159 -0.0108447 -8.72914e-20)
(7.35095 -0.0113698 -1.48248e-19)
(7.35025 -0.0119212 1.07778e-19)
(7.34951 -0.0125015 6.12953e-20)
(7.34872 -0.013118 1.38668e-19)
(7.34787 -0.0137728 -7.39353e-20)
(7.34698 -0.0144619 -4.20909e-20)
(7.34605 -0.0151779 4.84941e-20)
(7.34509 -0.0159145 -1.56213e-19)
(7.34411 -0.0166684 1.82447e-21)
(7.34311 -0.0174395 -1.26832e-19)
(7.3421 -0.0182309 0)
(7.34108 -0.0190485 0)
(7.34006 -0.0199016 0)
(7.33903 -0.0208016 0)
(7.33801 -0.0217609 1.01824e-19)
(7.33699 -0.0227915 0)
(7.33598 -0.0239052 1.19921e-19)
(7.335 -0.0251132 0)
(7.33406 -0.0264273 7.13477e-20)
(7.33315 -0.0278609 3.77568e-20)
(7.3323 -0.0294298 -4.17741e-20)
(7.33151 -0.0311526 4.28089e-20)
(7.33079 -0.0330496 4.73569e-20)
(7.33015 -0.0351443 -5.18277e-20)
(7.32958 -0.0374617 5.45717e-20)
(7.3291 -0.0400299 -2.96336e-20)
(7.32871 -0.0428791 6.17886e-20)
(7.32841 -0.0460423 -3.24907e-20)
(7.32821 -0.0495541 0)
(7.32809 -0.0534524 0)
(7.32807 -0.0577768 -8.15462e-20)
(7.32813 -0.0625695 -1.882e-21)
(7.32827 -0.0678737 0)
(7.32848 -0.0737357 4.93951e-20)
(7.32875 -0.0802066 -5.07461e-20)
(7.32907 -0.0873364 -2.59051e-20)
(7.32943 -0.0951774 0)
(7.32981 -0.103787 0)
(7.33019 -0.113224 0)
(7.33054 -0.123552 1.39695e-20)
(7.33085 -0.134836 1.44658e-20)
(7.33109 -0.147141 1.49855e-20)
(7.33123 -0.160533 1.55404e-20)
(7.33126 -0.175084 -1.61437e-20)
(7.33113 -0.190871 1.29893e-20)
(7.33082 -0.207975 -6.59526e-23)
(7.3303 -0.226487 2.24538e-20)
(7.32954 -0.246502 -1.42806e-20)
(7.3285 -0.268124 7.60151e-21)
(7.32715 -0.291464 -1.35472e-20)
(7.32544 -0.316647 -7.16408e-21)
(7.32334 -0.343804 -2.78293e-20)
(7.32081 -0.373079 6.74296e-21)
(7.3178 -0.404633 -9.905e-21)
(7.31429 -0.438648 2.4404e-21)
(7.31021 -0.475322 3.55998e-20)
(7.30553 -0.514876 -1.6452e-20)
(7.30021 -0.557559 2.90434e-20)
(7.29422 -0.603664 -1.93452e-20)
(7.28749 -0.65352 1.38649e-20)
(7.28001 -0.707493 -1.02267e-20)
(7.27174 -0.766018 1.08041e-20)
(7.26266 -0.82961 -1.51392e-20)
(7.25276 -0.898809 1.69497e-20)
(7.24206 -0.974428 -3.25992e-21)
(7.23058 -1.05698 0)
(7.21839 -1.1482 2.22073e-20)
(7.20569 -1.24746 2.36682e-20)
(7.19249 -1.3604 2.43972e-20)
(7.1799 -1.47923 3.84223e-21)
(7.1662 -1.62696 -1.02065e-20)
(7.15868 -1.76288 -7.41746e-21)
(7.14163 -1.97803 -5.23652e-21)
(7.16023 -2.10731 2.91406e-21)
(7.11536 -2.46888 -8.09678e-21)
(7.2421 -2.53039 1.83698e-20)
(7.06647 -3.17898 3.15055e-20)
(7.66687 -3.16181 4.64986e-20)
(6.83635 -4.38437 -1.07737e-19)
(7.35278 -0.00910977 -5.77766e-20)
(7.35365 -0.00803217 -5.89245e-20)
(7.35386 -0.00741728 7.17282e-20)
(7.35364 -0.00797834 4.41362e-21)
(7.35342 -0.00827351 -9.61466e-20)
(7.35314 -0.00852542 1.01217e-19)
(7.35274 -0.008843 1.22168e-19)
(7.35227 -0.00919007 -6.48429e-20)
(7.35173 -0.00957608 0)
(7.35111 -0.0100115 8.42432e-20)
(7.35043 -0.010481 9.45451e-20)
(7.3497 -0.0109739 -5.29251e-20)
(7.34893 -0.0114924 -5.91591e-20)
(7.3481 -0.0120455 -6.77787e-20)
(7.34723 -0.0126394 7.20664e-20)
(7.34632 -0.0132735 0)
(7.34537 -0.013942 9.44123e-20)
(7.34438 -0.0146385 1.04477e-19)
(7.34337 -0.0153589 0)
(7.34235 -0.0161024 -6.31732e-20)
(7.3413 -0.0168711 0)
(7.34025 -0.0176699 -7.58355e-20)
(7.33918 -0.0185074 0)
(7.33811 -0.0193944 1.83403e-19)
(7.33703 -0.0203438 -1.94324e-19)
(7.33595 -0.0213682 -2.1491e-19)
(7.33488 -0.02248 -1.18277e-19)
(7.33381 -0.0236907 6.30436e-20)
(7.33277 -0.0250124 -6.89287e-20)
(7.33175 -0.0264587 0)
(7.33077 -0.0280451 0)
(7.32983 -0.0297893 -4.47854e-20)
(7.32894 -0.0317115 9.58169e-20)
(7.3281 -0.0338346 5.086e-20)
(7.32731 -0.0361833 0)
(7.32659 -0.0387855 0)
(7.32592 -0.0416704 -6.43443e-20)
(7.32532 -0.0448699 6.77704e-20)
(7.32478 -0.0484175 -3.68199e-20)
(7.3243 -0.0523493 1.58741e-19)
(7.32387 -0.056703 8.38551e-20)
(7.32349 -0.0615191 -1.50435e-21)
(7.32316 -0.0668401 -4.93474e-20)
(7.32286 -0.0727108 4.86723e-21)
(7.32258 -0.0791771 5.05777e-20)
(7.32231 -0.0862878 -6.00664e-20)
(7.32204 -0.094095 3.02589e-20)
(7.32175 -0.102655 2.35988e-21)
(7.32141 -0.112025 0)
(7.321 -0.122267 -3.91485e-20)
(7.32051 -0.133443 -4.19405e-20)
(7.31991 -0.145618 4.50123e-20)
(7.31916 -0.158859 -2.62649e-20)
(7.31824 -0.173236 -4.71137e-20)
(7.31712 -0.188827 2.73011e-21)
(7.31577 -0.205715 2.76069e-20)
(7.31416 -0.223988 -2.91137e-20)
(7.31225 -0.243743 -1.62424e-20)
(7.31 -0.265082 5.39925e-20)
(7.30738 -0.288118 1.55185e-20)
(7.30434 -0.312976 2.04447e-20)
(7.30084 -0.339789 1.93363e-20)
(7.29683 -0.368704 -2.92051e-20)
(7.29228 -0.399884 0)
(7.28713 -0.43351 0)
(7.28133 -0.469788 -7.22175e-20)
(7.27483 -0.508943 -2.60516e-20)
(7.26759 -0.55123 0)
(7.25955 -0.596944 0)
(7.25066 -0.646422 -2.21421e-20)
(7.24087 -0.700046 0)
(7.23014 -0.758264 -5.61561e-20)
(7.21842 -0.821596 1.80868e-20)
(7.2057 -0.890615 4.14357e-21)
(7.19195 -0.966138 -6.06778e-20)
(7.1772 -1.04877 1.22555e-20)
(7.16146 -1.14014 -4.05771e-20)
(7.14493 -1.24003 -3.78553e-20)
(7.12753 -1.35337 -2.41091e-20)
(7.11038 -1.47409 3.97122e-20)
(7.09179 -1.62212 -3.95473e-20)
(7.0785 -1.76302 1.07131e-20)
(7.05651 -1.9771 5.20342e-21)
(7.06627 -2.11793 -2.00412e-20)
(7.01942 -2.47686 2.48829e-22)
(7.13142 -2.55593 -3.59678e-21)
(6.95858 -3.21084 -4.11615e-21)
(7.51796 -3.19047 -6.67525e-20)
(6.77173 -4.47344 1.60007e-19)
(7.35304 -0.00777767 -5.70152e-20)
(7.35353 -0.00729473 -6.14696e-20)
(7.35382 -0.00671373 -6.66174e-20)
(7.35354 -0.00723936 8.26748e-20)
(7.35326 -0.0075894 4.52639e-21)
(7.35293 -0.00783998 0)
(7.35249 -0.00813762 5.04254e-21)
(7.35199 -0.0084556 -6.31274e-20)
(7.35141 -0.00880064 7.16541e-20)
(7.35076 -0.0091874 0)
(7.35005 -0.00960748 9.62308e-20)
(7.34929 -0.0100492 -1.01314e-19)
(7.34849 -0.0105125 -1.20079e-19)
(7.34764 -0.0110061 6.17748e-20)
(7.34675 -0.011539 0)
(7.34581 -0.0121145 0)
(7.34483 -0.0127298 -8.99957e-20)
(7.34382 -0.0133799 -9.91918e-20)
(7.34278 -0.0140608 1.10705e-19)
(7.34172 -0.0147713 2.46205e-19)
(7.34064 -0.0155128 3.44631e-21)
(7.33954 -0.0162892 -1.5042e-19)
(7.33843 -0.0171074 -3.27734e-21)
(7.33731 -0.0179773 -1.1321e-21)
(7.33617 -0.0189109 -1.21615e-21)
(7.33502 -0.0199213 1.05437e-19)
(7.33387 -0.0210215 0)
(7.33271 -0.022224 6.43132e-20)
(7.33157 -0.0235415 -1.37724e-19)
(7.33043 -0.0249874 -7.80139e-20)
(7.32931 -0.026577 -2.4512e-21)
(7.32822 -0.0283276 -2.4079e-21)
(7.32716 -0.0302592 -9.40561e-20)
(7.32612 -0.0323938 0)
(7.32513 -0.0347559 0)
(7.32417 -0.0373721 -6.09533e-20)
(7.32324 -0.040271 -2.18919e-21)
(7.32235 -0.0434832 0)
(7.32149 -0.0470412 0)
(7.32065 -0.0509797 -7.83292e-20)
(7.31984 -0.0553348 -4.19332e-20)
(7.31905 -0.0601454 9.65702e-20)
(7.31826 -0.065452 9.83907e-20)
(7.31747 -0.0712982 -4.84404e-20)
(7.31666 -0.0777281 1.18196e-19)
(7.31582 -0.0847893 -2.71505e-21)
(7.31494 -0.0925323 0)
(7.31399 -0.101011 -3.33106e-20)
(7.31296 -0.110281 8.11571e-20)
(7.31182 -0.120402 7.95696e-20)
(7.31054 -0.131436 -5.02993e-20)
(7.30911 -0.143445 -4.38353e-20)
(7.30749 -0.156497 4.71607e-20)
(7.30564 -0.170662 0)
(7.30355 -0.186018 -6.62594e-20)
(7.30118 -0.202645 0)
(7.29849 -0.220634 0)
(7.29544 -0.240078 0)
(7.292 -0.261083 -3.86953e-20)
(7.28812 -0.283759 2.44827e-20)
(7.28376 -0.308232 3.28978e-20)
(7.27887 -0.334636 0)
(7.2734 -0.363119 -1.05596e-20)
(7.2673 -0.393848 5.14934e-21)
(7.26052 -0.427006 0)
(7.25299 -0.462796 1.62146e-20)
(7.24467 -0.501451 1.20222e-20)
(7.23549 -0.543232 -6.30287e-20)
(7.22539 -0.588438 0)
(7.21431 -0.637413 0)
(7.20219 -0.690549 0)
(7.18895 -0.748303 1.57354e-20)
(7.17455 -0.811208 2.40112e-20)
(7.15894 -0.879873 0)
(7.14206 -0.955104 -4.79716e-21)
(7.12393 -1.0376 1.09958e-19)
(7.1045 -1.12889 1.30956e-20)
(7.08396 -1.22912 4.05601e-20)
(7.06214 -1.34263 -8.32349e-20)
(7.04017 -1.46489 1.52313e-20)
(7.01625 -1.61304 -5.01057e-21)
(6.99696 -1.75838 -1.12242e-20)
(6.96896 -1.97146 1.18592e-20)
(6.97013 -2.12313 4.38086e-20)
(6.91918 -2.47912 0)
(7.01568 -2.57763 1.27318e-20)
(6.84602 -3.23794 -3.12409e-20)
(7.35893 -3.21342 4.97273e-20)
(6.71148 -4.56202 -7.3936e-20)
(7.35306 -0.00663475 1.07408e-19)
(7.35341 -0.00655713 0)
(7.35371 -0.00601922 6.47472e-20)
(7.35343 -0.00650452 1.59946e-19)
(7.35309 -0.00688671 -8.16595e-20)
(7.35272 -0.00714136 -9.81384e-20)
(7.35225 -0.0074198 2.34446e-19)
(7.35172 -0.00771157 -2.5378e-19)
(7.35111 -0.00801942 0)
(7.35044 -0.00836135 8.42464e-20)
(7.3497 -0.00873442 -8.86969e-20)
(7.34891 -0.00912746 0)
(7.34808 -0.00953806 0)
(7.34721 -0.00997406 0)
(7.34629 -0.0104464 1.42163e-19)
(7.34533 -0.0109617 0)
(7.34432 -0.0115204 8.74991e-20)
(7.34328 -0.0121194 -1.00099e-19)
(7.34221 -0.0127549 -2.23402e-21)
(7.34111 -0.0134256 -1.19775e-19)
(7.33999 -0.0141324 -1.3382e-19)
(7.33885 -0.0148784 2.86289e-19)
(7.33769 -0.0156694 0)
(7.33651 -0.016514 1.75551e-19)
(7.33531 -0.0174235 1.91266e-19)
(7.3341 -0.0184107 -1.40181e-21)
(7.33287 -0.0194892 1.12376e-19)
(7.33162 -0.0206721 0)
(7.33036 -0.0219725 0)
(7.32911 -0.023404 1.49271e-19)
(7.32785 -0.0249814 -7.92207e-20)
(7.3266 -0.0267219 -8.89982e-20)
(7.32536 -0.0286444 9.70843e-20)
(7.32414 -0.0307705 1.05549e-19)
(7.32292 -0.0331239 -1.14327e-19)
(7.32172 -0.0357307 1.82341e-19)
(7.32053 -0.0386184 -5.78564e-22)
(7.31935 -0.0418167 0)
(7.31817 -0.0453569 -7.92508e-20)
(7.31699 -0.0492726 0)
(7.3158 -0.0535986 9.29452e-20)
(7.31459 -0.0583721 -1.947e-19)
(7.31335 -0.0636324 -5.32416e-20)
(7.31208 -0.0694209 1.60865e-21)
(7.31075 -0.0757806 -1.20769e-19)
(7.30935 -0.0827583 1.32581e-19)
(7.30787 -0.0904022 1.84991e-21)
(7.30629 -0.0987643 -7.65279e-20)
(7.30458 -0.107899 5.2068e-20)
(7.30272 -0.117864 -4.49043e-20)
(7.30068 -0.128718 4.62652e-20)
(7.29844 -0.140526 2.62085e-21)
(7.29596 -0.153353 -2.00407e-21)
(7.29322 -0.167269 6.3001e-20)
(7.29018 -0.182351 6.47053e-20)
(7.28681 -0.198679 -3.93161e-20)
(7.28306 -0.216342 -1.79373e-21)
(7.27891 -0.235435 -2.07419e-21)
(7.27429 -0.256061 1.0635e-19)
(7.26918 -0.278332 -2.92598e-20)
(7.26352 -0.302374 9.88517e-21)
(7.25725 -0.328321 1.11069e-19)
(7.25034 -0.356321 7.09084e-20)
(7.24271 -0.386543 -1.35097e-19)
(7.23431 -0.41917 -5.02971e-20)
(7.22507 -0.454412 5.31755e-20)
(7.21493 -0.492503 5.51747e-20)
(7.20381 -0.533705 -1.34652e-20)
(7.19165 -0.578326 0)
(7.17837 -0.626712 -4.45375e-20)
(7.16389 -0.679265 7.21196e-20)
(7.14812 -0.736454 -2.64506e-20)
(7.131 -0.798822 0)
(7.11244 -0.866999 -3.5038e-20)
(7.09237 -0.941803 3.7126e-20)
(7.07076 -1.024 -7.57182e-20)
(7.04753 -1.11507 -1.04113e-19)
(7.02283 -1.21543 1.15175e-19)
(6.99641 -1.32896 1.12974e-19)
(6.96937 -1.45242 1.4991e-20)
(6.93984 -1.60061 5.58985e-20)
(6.91417 -1.74988 1.61367e-20)
(6.87958 -1.96202 -9.27814e-20)
(6.87191 -2.12396 -2.77882e-20)
(6.81531 -2.4772 0)
(6.89592 -2.59545 -1.47975e-20)
(6.72947 -3.26199 3.6506e-20)
(7.18569 -3.23394 -1.73257e-20)
(6.61787 -4.64048 0)
(7.35309 -0.00565324 0)
(7.35329 -0.0058363 0)
(7.3536 -0.00534926 0)
(7.35332 -0.00578659 -7.64235e-20)
(7.35294 -0.00618279 -9.22342e-20)
(7.35254 -0.00643904 9.71066e-20)
(7.35205 -0.00669867 1.24221e-21)
(7.35148 -0.00696468 -1.27926e-19)
(7.35086 -0.00723769 -1.43385e-19)
(7.35016 -0.00753697 0)
(7.3494 -0.00786466 -1.79972e-19)
(7.34858 -0.00821101 0)
(7.34773 -0.00857191 1.12319e-19)
(7.34683 -0.00895345 0)
(7.34589 -0.00936708 -1.3867e-19)
(7.34491 -0.00982205 1.59195e-19)
(7.34387 -0.0103219 4.66496e-21)
(7.3428 -0.0108654 0)
(7.3417 -0.0114499 1.06124e-19)
(7.34056 -0.012074 -1.2076e-19)
(7.3394 -0.0127386 -2.4415e-21)
(7.33821 -0.0134464 -1.43048e-19)
(7.337 -0.0142025 1.57405e-19)
(7.33576 -0.0150143 -3.44224e-19)
(7.3345 -0.0158921 -9.38715e-20)
(7.33322 -0.0168482 2.75675e-21)
(7.33191 -0.0178961 -1.11148e-19)
(7.33057 -0.0190493 0)
(7.32921 -0.0203215 1.38118e-19)
(7.32784 -0.0217262 -1.4402e-19)
(7.32644 -0.0232784 -7.89587e-20)
(7.32504 -0.024994 1.76314e-19)
(7.32363 -0.0268919 -1.92581e-19)
(7.32221 -0.0289926 -1.06513e-19)
(7.32078 -0.0313189 -3.64962e-21)
(7.31935 -0.033896 2.48078e-19)
(7.3179 -0.0367508 0)
(7.31643 -0.039912 0)
(7.31494 -0.0434099 -3.19101e-21)
(7.31341 -0.0472768 -3.46047e-21)
(7.31185 -0.0515464 -9.08395e-20)
(7.31024 -0.0562545 -4.76765e-21)
(7.30857 -0.0614392 -6.11797e-20)
(7.30683 -0.0671402 1.22163e-19)
(7.30499 -0.0733995 6.41036e-20)
(7.30306 -0.0802619 0)
(7.301 -0.0877743 0)
(7.2988 -0.0959872 8.52404e-20)
(7.29643 -0.104953 -1.76615e-19)
(7.29387 -0.114728 0)
(7.29109 -0.12537 -1.7043e-19)
(7.28806 -0.136942 -5.84495e-20)
(7.28476 -0.149508 6.42251e-20)
(7.28114 -0.163139 0)
(7.27717 -0.17791 8.41954e-20)
(7.27282 -0.193901 -4.47041e-20)
(7.26804 -0.2112 9.66342e-20)
(7.26279 -0.229901 -1.66441e-19)
(7.25703 -0.250106 8.56386e-21)
(7.2507 -0.27193 0)
(7.24375 -0.295494 -6.76987e-20)
(7.23614 -0.320935 -7.53929e-20)
(7.22779 -0.348404 4.6989e-20)
(7.21864 -0.378065 -8.28029e-21)
(7.20863 -0.410108 5.55974e-20)
(7.19769 -0.444741 -1.35151e-19)
(7.18573 -0.482202 3.28159e-20)
(7.17269 -0.522759 6.78791e-20)
(7.15846 -0.56672 -4.40928e-20)
(7.14297 -0.614436 0)
(7.12611 -0.666321 1.23984e-19)
(7.10779 -0.72285 1.39447e-19)
(7.0879 -0.784581 0)
(7.06634 -0.852167 -4.17975e-20)
(7.04301 -0.926427 -7.64986e-21)
(7.01783 -1.0082 -1.60165e-19)
(6.99068 -1.09891 7.41867e-20)
(6.96166 -1.19923 8.58577e-20)
(6.93044 -1.31267 -2.83554e-19)
(6.89806 -1.43707 -3.10785e-20)
(6.8626 -1.58532 -2.05027e-20)
(6.83009 -1.73803 -9.69136e-20)
(6.78834 -1.9496 7.61578e-20)
(6.77119 -2.12101 -9.20755e-20)
(6.70762 -2.47247 1.02665e-20)
(6.77192 -2.60953 0)
(6.6064 -3.2829 0)
(7.01796 -3.26687 1.37631e-20)
(6.47105 -4.68842 8.51275e-21)
(7.35312 -0.00480124 0)
(7.35318 -0.00515139 0)
(7.35349 -0.0047122 0)
(7.35321 -0.00509486 6.03502e-21)
(7.35281 -0.00548732 -8.3092e-20)
(7.35238 -0.00573972 1.99371e-19)
(7.35186 -0.005979 -2.19934e-19)
(7.35128 -0.00621845 3.81163e-19)
(7.35063 -0.00645743 3.57199e-21)
(7.34992 -0.00671526 0)
(7.34914 -0.00699828 1.76091e-19)
(7.3483 -0.00729893 1.01751e-19)
(7.34742 -0.00761174 -2.17053e-19)
(7.3465 -0.00794078 0)
(7.34554 -0.00829702 1.40518e-19)
(7.34453 -0.00869146 -1.47968e-19)
(7.34348 -0.00913029 5.05092e-21)
(7.34238 -0.00961453 -1.82887e-19)
(7.34124 -0.0101428 2.96538e-21)
(7.34006 -0.010714 2.47141e-21)
(7.33885 -0.0113292 -2.88054e-21)
(7.33762 -0.0119911 2.77426e-19)
(7.33635 -0.0127041 1.06845e-21)
(7.33506 -0.0134749 3.39981e-19)
(7.33373 -0.0143125 0)
(7.33238 -0.0152286 0)
(7.33099 -0.0162363 0)
(7.32956 -0.0173492 0)
(7.3281 -0.0185813 -2.73447e-19)
(7.3266 -0.0199463 2.91269e-19)
(7.32508 -0.0214591 3.28043e-19)
(7.32352 -0.023135 -8.23207e-20)
(7.32194 -0.0249921 -1.96319e-19)
(7.32033 -0.0270499 1.03761e-19)
(7.31869 -0.0293305 0)
(7.31702 -0.0318582 -3.79492e-19)
(7.31532 -0.0346587 -1.44415e-19)
(7.31357 -0.03776 -5.44341e-21)
(7.31177 -0.0411915 0)
(7.30992 -0.0449841 -4.31259e-21)
(7.30799 -0.0491707 0)
(7.30599 -0.0537859 -1.07584e-19)
(7.3039 -0.058866 2.2511e-19)
(7.3017 -0.06445 -1.21634e-19)
(7.29938 -0.0705782 -6.99759e-20)
(7.29691 -0.077294 -2.71519e-21)
(7.29429 -0.0846429 8.06535e-20)
(7.29149 -0.0926738 0)
(7.28848 -0.101437 -1.02692e-19)
(7.28524 -0.110988 0)
(7.28175 -0.121384 2.37181e-19)
(7.27795 -0.132684 -6.67914e-20)
(7.27384 -0.144954 7.04806e-20)
(7.26937 -0.158262 8.13642e-20)
(7.26449 -0.172684 -1.71303e-19)
(7.25919 -0.188298 -9.50449e-20)
(7.2534 -0.20519 0)
(7.24708 -0.223455 1.12496e-19)
(7.24019 -0.243195 -6.25103e-20)
(7.23267 -0.264522 0)
(7.22447 -0.287559 -8.81379e-20)
(7.21552 -0.312441 0)
(7.20576 -0.33932 0)
(7.19512 -0.368362 -5.99601e-20)
(7.18352 -0.399755 1.30731e-19)
(7.17088 -0.433709 7.26591e-20)
(7.15713 -0.470463 4.96881e-21)
(7.14216 -0.51029 -3.75965e-21)
(7.12587 -0.553498 0)
(7.10817 -0.600449 0)
(7.08892 -0.651555 -1.95955e-19)
(7.06803 -0.707302 -1.33886e-19)
(7.04535 -0.768262 -2.60774e-19)
(7.02075 -0.835102 -4.85802e-20)
(6.99409 -0.90865 1.498e-19)
(6.96526 -0.989795 1.10088e-19)
(6.93409 -1.07994 3.41373e-20)
(6.9006 -1.17996 -1.73272e-19)
(6.86441 -1.29309 1.51525e-19)
(6.82642 -1.41804 0)
(6.7847 -1.56614 -1.07561e-19)
(6.74489 -1.72172 1.507e-19)
(6.69537 -1.93262 -5.60727e-20)
(6.66794 -2.11273 1.06089e-19)
(6.59602 -2.46215 0)
(6.64314 -2.61816 0)
(6.47515 -3.29473 1.70867e-21)
(6.84692 -3.29621 2.02653e-20)
(6.34558 -4.7439 7.27992e-21)
(7.35317 -0.00405964 0)
(7.35311 -0.00450667 0)
(7.3534 -0.00411082 -1.35198e-19)
(7.35312 -0.00443472 3.11806e-19)
(7.35269 -0.00480819 -3.42744e-19)
(7.35224 -0.00504961 -1.98431e-19)
(7.35171 -0.00526581 -1.14551e-19)
(7.35111 -0.00547684 1.25027e-19)
(7.35044 -0.00568154 8.37344e-21)
(7.34971 -0.00589824 -3.11321e-19)
(7.34892 -0.00613661 -5.01214e-21)
(7.34806 -0.00639156 -1.94276e-19)
(7.34716 -0.00665695 -1.05154e-19)
(7.34622 -0.00693483 3.18563e-21)
(7.34524 -0.00723501 3.89474e-21)
(7.34421 -0.00756914 -2.99077e-19)
(7.34313 -0.00794558 3.2771e-19)
(7.342 -0.00836764 5.1701e-21)
(7.34083 -0.00883526 -9.45254e-20)
(7.33962 -0.00934817 -3.37724e-19)
(7.33837 -0.00990741 -1.25268e-19)
(7.33708 -0.0105158 -1.38836e-19)
(7.33576 -0.0111776 -1.52347e-19)
(7.33441 -0.0118991 4.44992e-21)
(7.33302 -0.0126881 -5.55975e-19)
(7.33159 -0.0135554 3.03015e-19)
(7.33012 -0.0145134 -2.21522e-19)
(7.32861 -0.0155756 -1.93523e-21)
(7.32704 -0.0167562 -7.39926e-21)
(7.32543 -0.0180689 2.95299e-19)
(7.32377 -0.0195284 -3.19039e-19)
(7.32206 -0.0211499 -1.75591e-19)
(7.32031 -0.0229504 3.92092e-19)
(7.31852 -0.0249486 -1.04592e-19)
(7.31667 -0.0271659 -2.37377e-19)
(7.31478 -0.0296251 2.51132e-19)
(7.31282 -0.0323512 1.37326e-19)
(7.3108 -0.0353711 1.50013e-19)
(7.30871 -0.0387132 -1.70749e-19)
(7.30653 -0.0424075 8.94947e-20)
(7.30426 -0.0464859 0)
(7.30188 -0.0509817 -5.64763e-22)
(7.29937 -0.0559299 -1.18019e-19)
(7.29673 -0.0613683 1.35534e-19)
(7.29394 -0.067336 7.37417e-20)
(7.29097 -0.0738747 -1.58715e-19)
(7.2878 -0.0810288 8.53794e-20)
(7.28442 -0.0888452 9.78469e-20)
(7.28079 -0.0973733 -1.09809e-19)
(7.2769 -0.106666 1.13671e-19)
(7.2727 -0.11678 -2.55846e-19)
(7.26816 -0.127773 7.24702e-20)
(7.26326 -0.13971 -7.6493e-20)
(7.25796 -0.152658 -8.89206e-20)
(7.25221 -0.166691 2.83973e-19)
(7.24597 -0.181885 -2.16266e-19)
(7.2392 -0.198328 -6.10818e-20)
(7.23184 -0.216112 -7.46206e-20)
(7.22385 -0.235338 7.60174e-20)
(7.21517 -0.256118 -3.3906e-19)
(7.20573 -0.278574 1.76969e-19)
(7.19547 -0.30284 -1.06565e-19)
(7.18432 -0.329067 1.75251e-19)
(7.1722 -0.357422 2.00594e-19)
(7.15904 -0.388093 0)
(7.14473 -0.42129 0)
(7.12919 -0.457252 9.55608e-20)
(7.11231 -0.496255 -1.01252e-19)
(7.09397 -0.53861 1.24329e-19)
(7.07406 -0.584677 0)
(7.05244 -0.634878 -1.78642e-20)
(7.02896 -0.689703 -1.78689e-19)
(7.00348 -0.749729 -7.22307e-20)
(6.97582 -0.81564 5.21295e-20)
(6.9458 -0.888276 0)
(6.91327 -0.968567 2.14689e-19)
(6.87799 -1.05789 -7.44719e-20)
(6.83991 -1.1573 4.3948e-20)
(6.7986 -1.26979 -9.57152e-20)
(6.75477 -1.39485 5.20937e-20)
(6.70651 -1.54243 1.08055e-19)
(6.65899 -1.70018 0)
(6.60116 -1.91003 0)
(6.56275 -2.098 1.60255e-19)
(6.48121 -2.44452 -1.47546e-19)
(6.51021 -2.61962 0)
(6.33651 -3.29543 0)
(6.67072 -3.32561 -3.03091e-20)
(6.22852 -4.8091 1.03389e-19)
(7.35325 -0.0034126 1.12788e-19)
(7.35306 -0.00390441 1.8333e-23)
(7.35332 -0.00354604 -1.39961e-19)
(7.35305 -0.00380897 0)
(7.3526 -0.00415038 -1.80668e-19)
(7.35212 -0.00437303 3.85508e-19)
(7.35158 -0.00456253 -2.20245e-19)
(7.35096 -0.00474259 3.65758e-21)
(7.35028 -0.00491186 -1.33427e-19)
(7.34954 -0.00508704 0)
(7.34874 -0.00528012 1.7111e-19)
(7.34787 -0.00548865 1.91209e-19)
(7.34695 -0.00570652 -1.0968e-19)
(7.34599 -0.00593386 1.12004e-19)
(7.34499 -0.00617881 2.60879e-19)
(7.34394 -0.00645297 -2.97883e-19)
(7.34283 -0.00676612 1.58951e-19)
(7.34168 -0.0071236 1.81533e-19)
(7.34048 -0.0075269 0)
(7.33923 -0.00797652 4.4698e-19)
(7.33794 -0.00847376 -2.50826e-19)
(7.3366 -0.00902169 4.07448e-19)
(7.33523 -0.00962448 0)
(7.33382 -0.0102881 -1.70533e-19)
(7.33236 -0.0110199 1.74731e-19)
(7.33086 -0.0118294 1.97706e-19)
(7.32931 -0.0127283 1.10418e-19)
(7.32771 -0.0137297 -1.21299e-19)
(7.32605 -0.0148474 1.3326e-19)
(7.32432 -0.0160955 0)
(7.32253 -0.0174883 1.63393e-19)
(7.32068 -0.0190409 -2.40053e-21)
(7.31877 -0.0207696 9.59564e-20)
(7.31679 -0.0226922 -4.47326e-21)
(7.31475 -0.0248288 3.53141e-19)
(7.31263 -0.0272013 5.31086e-21)
(7.31043 -0.0298338 5.80424e-21)
(7.30815 -0.032752 -3.12272e-19)
(7.30577 -0.0359834 1.68278e-19)
(7.30328 -0.0395568 -9.62379e-20)
(7.30066 -0.0435031 -4.25795e-21)
(7.29791 -0.0478544 2.22363e-19)
(7.29501 -0.052645 -1.27714e-19)
(7.29195 -0.0579108 -1.39972e-19)
(7.28869 -0.0636899 7.24999e-22)
(7.28523 -0.0700228 4.19809e-19)
(7.28154 -0.0769521 -1.83871e-19)
(7.2776 -0.0845233 9.91407e-20)
(7.27337 -0.0927847 0)
(7.26884 -0.101788 -1.28067e-19)
(7.26397 -0.111586 2.73583e-19)
(7.25872 -0.122238 7.78618e-20)
(7.25305 -0.133806 -1.70745e-19)
(7.24694 -0.146357 -9.12689e-20)
(7.24034 -0.159962 0)
(7.23319 -0.174697 1.10685e-19)
(7.22546 -0.190649 -1.88361e-21)
(7.21709 -0.207909 -2.97881e-21)
(7.20803 -0.226575 0)
(7.1982 -0.246759 3.60712e-19)
(7.18756 -0.268581 0)
(7.17602 -0.292176 1.18859e-19)
(7.16351 -0.317692 -1.21058e-19)
(7.14994 -0.345296 -1.36009e-19)
(7.13523 -0.375176 -8.58386e-20)
(7.11928 -0.40754 -8.81216e-20)
(7.10198 -0.44263 0)
(7.08321 -0.480719 0)
(7.06284 -0.52212 -1.23341e-19)
(7.04074 -0.567195 -7.59082e-20)
(7.01674 -0.61637 6.32359e-20)
(6.99069 -0.670135 1.7751e-19)
(6.9624 -0.72908 3.09896e-19)
(6.93166 -0.793892 -1.16272e-19)
(6.89826 -0.865424 1.425e-19)
(6.86198 -0.944637 1.69259e-20)
(6.82254 -1.0329 1.81652e-19)
(6.77979 -1.1314 0)
(6.73323 -1.24294 0)
(6.68341 -1.36768 -2.57733e-19)
(6.6284 -1.5144 6.85932e-20)
(6.57283 -1.67366 4.86378e-20)
(6.50625 -1.88214 3.96276e-20)
(6.45628 -2.07702 -1.19657e-19)
(6.36415 -2.42016 -7.62033e-20)
(6.37427 -2.61385 1.85143e-19)
(6.19215 -3.28773 -9.40432e-20)
(6.48497 -3.3509 -7.22429e-21)
(6.06608 -4.86117 -2.49958e-20)
(7.35334 -0.00284818 8.49704e-20)
(7.35305 -0.00334528 0)
(7.35327 -0.00301767 1.34518e-19)
(7.35299 -0.00321876 0)
(7.35252 -0.00351747 1.79715e-19)
(7.35203 -0.00371346 -1.89224e-19)
(7.35147 -0.00387215 1.05027e-19)
(7.35084 -0.00401827 2.43412e-19)
(7.35016 -0.00415041 -2.71695e-19)
(7.34941 -0.0042832 -8.76186e-21)
(7.34859 -0.00443003 1.64153e-19)
(7.34771 -0.00459096 0)
(7.34677 -0.00476041 2.10399e-19)
(7.3458 -0.00493707 -2.343e-19)
(7.34478 -0.00512719 -2.63819e-19)
(7.34371 -0.00534163 1.37024e-19)
(7.34259 -0.00559088 -4.2691e-21)
(7.34141 -0.00588195 0)
(7.34018 -0.00621782 -1.98349e-19)
(7.3389 -0.00659989 -4.40936e-19)
(7.33756 -0.00702988 1.22251e-19)
(7.33619 -0.00751094 -2.70601e-19)
(7.33476 -0.00804745 -1.49699e-19)
(7.33329 -0.00864524 0)
(7.33177 -0.00931113 1.82543e-19)
(7.3302 -0.0100541 2.01299e-19)
(7.32857 -0.0108846 0)
(7.32688 -0.0118152 0)
(7.32512 -0.0128594 0)
(7.32329 -0.0140309 2.61766e-21)
(7.32138 -0.0153442 -1.54154e-19)
(7.31939 -0.016814 -3.53021e-19)
(7.31732 -0.018456 -1.95439e-19)
(7.31516 -0.0202872 2.1953e-19)
(7.31292 -0.0223268 -1.21031e-19)
(7.31059 -0.0245955 -1.33424e-19)
(7.30816 -0.0271163 1.48406e-19)
(7.30562 -0.0299136 1.93338e-21)
(7.30296 -0.0330141 -1.72222e-19)
(7.30017 -0.0364456 -2.96184e-19)
(7.29723 -0.0402377 1.04447e-19)
(7.29412 -0.0444217 0)
(7.29084 -0.0490304 -1.32715e-19)
(7.28737 -0.0540987 1.33044e-19)
(7.28367 -0.0596635 -1.53741e-19)
(7.27974 -0.0657636 -1.69616e-19)
(7.27554 -0.0724406 -1.98233e-19)
(7.27106 -0.0797384 0)
(7.26625 -0.0877037 -1.21834e-19)
(7.26111 -0.0963864 1.26789e-19)
(7.25558 -0.105839 9.76538e-21)
(7.24963 -0.116119 0)
(7.24324 -0.127286 8.08382e-20)
(7.23634 -0.139406 2.0078e-19)
(7.22891 -0.152549 -2.23883e-19)
(7.22089 -0.166791 1.21495e-19)
(7.21223 -0.182214 2.773e-19)
(7.20287 -0.19891 -3.13808e-19)
(7.19276 -0.216976 0)
(7.18183 -0.236522 -1.87446e-19)
(7.17 -0.257667 -2.2876e-19)
(7.15721 -0.280543 -1.18032e-19)
(7.14336 -0.305298 -1.43278e-19)
(7.12838 -0.332099 7.10594e-20)
(7.11215 -0.36113 2.53474e-19)
(7.09458 -0.392603 -1.02479e-19)
(7.07553 -0.426753 3.4221e-19)
(7.05489 -0.463856 -1.30589e-19)
(7.03251 -0.504225 2.12318e-19)
(7.00824 -0.548224 9.0311e-20)
(6.98188 -0.596278 1.74001e-19)
(6.95326 -0.648882 0)
(6.92216 -0.706627 1.20813e-19)
(6.88834 -0.77021 -6.01074e-20)
(6.85153 -0.840492 -2.92539e-19)
(6.81147 -0.918461 1.1487e-20)
(6.7678 -1.00548 -1.87576e-19)
(6.7203 -1.10284 4.95522e-20)
(6.66837 -1.21324 1.21999e-19)
(6.61235 -1.33732 4.80888e-19)
(6.55033 -1.48298 -7.81779e-20)
(6.48634 -1.6432 -4.37517e-19)
(6.41052 -1.85029 -1.96451e-19)
(6.34815 -2.0511 2.17646e-19)
(6.2444 -2.3913 3.99394e-19)
(6.23407 -2.60214 -2.04703e-19)
(6.04138 -3.27573 1.30136e-19)
(6.29601 -3.36808 -1.02965e-20)
(5.8589 -4.89275 -1.27244e-19)
(7.35345 -0.00235704 1.7555e-19)
(7.35307 -0.00282938 1.35452e-19)
(7.35324 -0.00252515 1.38215e-19)
(7.35296 -0.00266441 0)
(7.35248 -0.00291185 0)
(7.35196 -0.00307358 0)
(7.35139 -0.00319699 2.22638e-19)
(7.35076 -0.00330595 -1.14024e-19)
(7.35006 -0.0033988 1.33839e-19)
(7.34931 -0.00348797 -1.53843e-19)
(7.34848 -0.00358729 1.62001e-19)
(7.34759 -0.00369905 1.91451e-19)
(7.34664 -0.00381865 -2.01607e-19)
(7.34565 -0.00394385 0)
(7.34462 -0.00407899 1.245e-19)
(7.34353 -0.00423369 -3.18055e-21)
(7.34239 -0.00441855 -1.58094e-19)
(7.3412 -0.00464173 -1.75804e-19)
(7.33994 -0.00490763 1.96368e-19)
(7.33862 -0.00521849 8.19665e-22)
(7.33726 -0.00557651 1.2412e-19)
(7.33583 -0.00598494 3.25205e-21)
(7.33436 -0.00644849 1.48235e-19)
(7.33283 -0.00697276 -1.63987e-19)
(7.33125 -0.00756459 -3.66344e-19)
(7.32961 -0.00823211 1.96373e-19)
(7.3279 -0.00898508 2.2583e-19)
(7.32613 -0.00983521 -3.57341e-19)
(7.32427 -0.0107954 -1.31207e-19)
(7.32233 -0.011879 1.47103e-19)
(7.32031 -0.0131004 -1.64209e-19)
(7.31818 -0.0144739 3.25841e-21)
(7.31596 -0.0160147 -1.94615e-19)
(7.31364 -0.0177393 -4.39137e-19)
(7.31122 -0.0196656 1.19935e-19)
(7.30868 -0.0218136 -4.90176e-21)
(7.30602 -0.024205 -6.82618e-21)
(7.30323 -0.0268631 4.85638e-19)
(7.30031 -0.0298133 1.84528e-19)
(7.29722 -0.0330825 1.0281e-19)
(7.29397 -0.0366991 -1.0745e-19)
(7.29053 -0.0406932 0)
(7.28688 -0.0450967 1.37675e-19)
(7.28301 -0.0499432 1.36678e-23)
(7.27889 -0.0552682 1.68158e-19)
(7.2745 -0.0611093 1.87049e-19)
(7.26982 -0.0675067 -2.07655e-19)
(7.26481 -0.0745029 0)
(7.25946 -0.0821429 -6.98537e-21)
(7.25372 -0.0904752 -7.24501e-21)
(7.24756 -0.0995512 -1.57541e-19)
(7.24095 -0.109426 3.43932e-19)
(7.23384 -0.120159 1.08118e-20)
(7.22619 -0.131813 -2.20423e-19)
(7.21796 -0.144458 -1.23544e-19)
(7.20909 -0.158167 -2.6784e-19)
(7.19953 -0.173023 1.54516e-19)
(7.18921 -0.189113 -1.13707e-20)