/*--------------------------------*- C++ -*----------------------------------*\
  =========                 |
  \\      /  F ield         | OpenFOAM: The Open Source CFD Toolbox
   \\    /   O peration     | Website:  https://openfoam.org
    \\  /    A nd           | Version:  11
     \\/     M anipulation  |
\*---------------------------------------------------------------------------*/
FoamFile
{
    format      ascii;
    class       volVectorField;
    location    "50";
    object      U;
}
// * * * * * * * * * * * * * * * * * * * * * * * * * * * * * * * * * * * * * //

dimensions      [0 1 -1 0 0 0 0];

internalField   nonuniform List<vector> 
31595
(
(25.6313 3.41277 -6.08295e-19)
(25.7188 3.46029 1.79601e-19)
(25.6961 3.47507 8.81825e-19)
(25.6984 3.46536 1.01613e-18)
(25.6895 3.46246 0)
(25.6828 3.46114 0)
(25.6704 3.45782 0)
(25.658 3.45438 8.12919e-19)
(25.6434 3.45109 2.60836e-20)
(25.6278 3.44797 0)
(25.6108 3.44492 0)
(25.5927 3.44189 6.1495e-19)
(25.5733 3.43878 -6.47857e-19)
(25.5528 3.43561 7.53869e-19)
(25.5313 3.43243 -7.94279e-19)
(25.5087 3.42932 8.96048e-19)
(25.4851 3.42635 0)
(25.4606 3.42357 -1.12439e-18)
(25.4351 3.42099 2.39108e-18)
(25.4086 3.41863 -6.83367e-19)
(25.3812 3.41645 7.20145e-19)
(25.3528 3.41442 0)
(25.3235 3.4125 0)
(25.2931 3.41066 1.00422e-18)
(25.2617 3.40885 -5.0589e-19)
(25.2291 3.40708 2.55558e-20)
(25.1955 3.40535 -1.28434e-18)
(25.1606 3.40365 -7.35591e-19)
(25.1246 3.40201 1.58417e-18)
(25.0874 3.40042 -1.7187e-18)
(25.0488 3.39889 0)
(25.0089 3.39739 -5.17908e-19)
(24.9675 3.39591 5.89682e-19)
(24.9247 3.39441 -6.21854e-19)
(24.8803 3.39286 6.99911e-19)
(24.8344 3.3912 -7.81024e-19)
(24.7867 3.38941 4.09417e-19)
(24.7372 3.38745 1.38161e-18)
(24.6859 3.38532 0)
(24.6327 3.38299 -5.67376e-19)
(24.5775 3.38046 1.21155e-18)
(24.5201 3.37768 0)
(24.4605 3.37459 0)
(24.3987 3.37109 -4.18725e-19)
(24.3345 3.36714 1.75297e-18)
(24.2677 3.36262 0)
(24.198 3.35744 -5.45397e-19)
(24.1255 3.35151 1.16476e-18)
(24.0498 3.34477 -6.58312e-19)
(23.971 3.33713 7.1208e-19)
(23.8887 3.32847 -1.94656e-18)
(23.8027 3.3187 4.15323e-19)
(23.7129 3.30772 -1.42181e-18)
(23.619 3.29545 2.07364e-18)
(23.5208 3.28171 -5.4911e-19)
(23.4179 3.26638 -1.24678e-18)
(23.3101 3.24929 -7.0765e-19)
(23.1971 3.23025 -4.11536e-19)
(23.0784 3.20904 -8.67453e-19)
(22.9537 3.18542 1.38461e-18)
(22.8226 3.15912 -1.08514e-20)
(22.6846 3.12987 5.68232e-19)
(22.5391 3.09743 2.6732e-20)
(22.3856 3.06144 -3.17742e-19)
(22.2236 3.02144 4.0872e-19)
(22.0522 2.977 -1.7063e-18)
(21.8707 2.92772 -4.83247e-19)
(21.6784 2.87299 5.24882e-19)
(21.4742 2.81207 1.76785e-18)
(21.2571 2.7441 4.53034e-20)
(21.0257 2.66827 -1.04896e-18)
(20.7789 2.58349 1.83424e-20)
(20.515 2.48849 9.16543e-19)
(20.2321 2.38175 0)
(19.9284 2.26137 1.14309e-18)
(19.6014 2.12508 0)
(19.2483 1.97028 7.1991e-19)
(18.8659 1.79366 0)
(18.4507 1.59108 0)
(17.9983 1.35732 0)
(17.5037 1.0856 1.21398e-18)
(16.9608 0.767192 6.87952e-19)
(16.3639 0.391979 -1.20357e-18)
(15.7034 -0.0591958 -9.57314e-19)
(14.9761 -0.598073 5.28864e-19)
(14.1611 -1.26776 3.25828e-19)
(13.2928 -2.07946 4.05043e-19)
(12.2767 -3.19343 -4.55634e-19)
(11.465 -4.57366 5.15475e-19)
(25.6915 3.44074 1.73448e-18)
(25.7001 3.46514 9.58411e-19)
(25.705 3.48883 8.56176e-19)
(25.698 3.4805 -2.94787e-18)
(25.6901 3.47692 0)
(25.6811 3.47621 0)
(25.6695 3.47386 1.36948e-18)
(25.6563 3.4709 0)
(25.6419 3.46812 0)
(25.6263 3.46547 -1.88076e-18)
(25.6096 3.46297 -3.15554e-18)
(25.5917 3.4606 2.28239e-18)
(25.5727 3.45828 1.27472e-18)
(25.5524 3.45597 2.86332e-18)
(25.531 3.45371 -1.53139e-18)
(25.5085 3.45153 -8.6976e-19)
(25.485 3.44949 9.8116e-19)
(25.4606 3.44764 -3.13648e-18)
(25.4352 3.446 2.31033e-20)
(25.4089 3.4446 -2.53687e-18)
(25.3817 3.44341 0)
(25.3536 3.44242 0)
(25.3244 3.44161 0)
(25.2943 3.44094 0)
(25.2631 3.44039 2.06671e-18)
(25.2307 3.43993 0)
(25.1971 3.43955 2.51485e-18)
(25.1623 3.43924 0)
(25.1263 3.439 1.51331e-18)
(25.089 3.43884 8.4111e-19)
(25.0504 3.43875 -9.40482e-19)
(25.0104 3.43874 9.74238e-19)
(24.969 3.43879 1.09e-18)
(24.9262 3.43888 -1.24772e-18)
(24.8819 3.43898 1.31591e-18)
(24.836 3.43906 -7.52588e-19)
(24.7884 3.43909 1.60641e-18)
(24.7389 3.43902 -8.92427e-19)
(24.6876 3.43885 0)
(24.6343 3.43853 0)
(24.5789 3.43805 -2.37325e-18)
(24.5213 3.43735 -1.79406e-20)
(24.4615 3.43639 0)
(24.3992 3.43511 1.55209e-18)
(24.3345 3.43344 -1.69009e-18)
(24.2671 3.43131 -9.23223e-19)
(24.197 3.42865 0)
(24.1239 3.42538 0)
(24.0477 3.42143 0)
(23.9682 3.41671 6.88439e-19)
(23.8852 3.41113 7.57139e-19)
(23.7984 3.40458 8.3297e-19)
(23.7077 3.39699 9.16726e-19)
(23.6128 3.38823 -1.00926e-18)
(23.5134 3.37818 5.39763e-19)
(23.4093 3.3667 -2.49468e-20)
(23.3001 3.35362 1.35008e-18)
(23.1855 3.33879 -7.4475e-19)
(23.0652 3.322 8.07537e-19)
(22.9387 3.30303 -8.85818e-19)
(22.8056 3.28165 -4.70247e-19)
(22.6653 3.25758 -1.65019e-18)
(22.5174 3.23055 6.13552e-19)
(22.3612 3.20024 -6.95027e-19)
(22.1962 3.16624 -1.50123e-20)
(22.0215 3.12812 2.52708e-18)
(21.8364 3.08544 -9.32227e-19)
(21.64 3.03761 2.0692e-18)
(21.4313 2.98395 -1.68643e-18)
(21.2091 2.92365 6.55468e-19)
(20.9722 2.85586 -7.33378e-19)
(20.7191 2.77951 7.83562e-19)
(20.4481 2.69333 -1.35442e-18)
(20.1573 2.5958 9.84962e-19)
(19.8447 2.48504 -5.75211e-19)
(19.5075 2.35882 0)
(19.1429 2.21442 1.44702e-18)
(18.7475 2.04847 1.64104e-18)
(18.3172 1.85672 1.8673e-18)
(17.8475 1.63371 5.45233e-19)
(17.333 1.37246 -2.42962e-18)
(16.767 1.06373 -7.25242e-19)
(16.1429 0.696582 -1.63319e-18)
(15.4507 0.250951 2.35679e-18)
(14.6859 -0.286687 1.11038e-18)
(13.8273 -0.963517 -2.29647e-18)
(12.9069 -1.79398 -1.16157e-18)
(11.8289 -2.93328 -2.35654e-18)
(10.8955 -4.35971 2.74578e-18)
(25.7008 3.46948 -1.49253e-18)
(25.7015 3.47889 -1.611e-18)
(25.7061 3.5013 1.73025e-18)
(25.6983 3.49538 8.83481e-20)
(25.6892 3.49123 -2.21205e-18)
(25.6795 3.49065 2.32959e-18)
(25.6677 3.489 2.69003e-18)
(25.6542 3.48664 -1.44318e-18)
(25.6395 3.48445 0)
(25.6238 3.48249 1.83175e-18)
(25.6071 3.48075 2.02865e-18)
(25.5892 3.47921 -1.12236e-18)
(25.5703 3.47779 -1.24151e-18)
(25.5501 3.47644 -1.4156e-18)
(25.5289 3.47515 1.47658e-18)
(25.5066 3.47397 0)
(25.4833 3.47295 1.89036e-18)
(25.459 3.47215 2.08005e-18)
(25.4338 3.4716 0)
(25.4077 3.47131 -1.21564e-18)
(25.3807 3.47128 0)
(25.3528 3.4715 -1.49238e-18)
(25.3238 3.47194 0)
(25.2939 3.47256 3.66735e-18)
(25.2629 3.47334 -3.91567e-18)
(25.2307 3.47425 -4.34418e-18)
(25.1973 3.47527 -2.45697e-18)
(25.1628 3.47638 1.30555e-18)
(25.1269 3.47759 -1.47451e-18)
(25.0897 3.47891 0)
(25.0512 3.48034 0)
(25.0114 3.48189 -9.95823e-19)
(24.9701 3.48355 2.0839e-18)
(24.9273 3.4853 1.15421e-18)
(24.883 3.48713 0)
(24.837 3.489 0)
(24.7893 3.49089 -1.59441e-18)
(24.7398 3.49277 1.68229e-18)
(24.6884 3.4946 -9.61988e-19)
(24.6349 3.49636 4.12904e-18)
(24.5794 3.49802 2.31825e-18)
(24.5216 3.49954 2.9886e-20)
(24.4616 3.50087 -1.3644e-18)
(24.3991 3.50197 -1.53058e-20)
(24.334 3.50278 1.66425e-18)
(24.2663 3.50325 -1.81148e-18)
(24.1957 3.5033 1.02196e-18)
(24.1221 3.50287 1.55268e-20)
(24.0453 3.50187 0)
(23.9651 3.50023 -1.32577e-18)
(23.8813 3.49786 -1.45937e-18)
(23.7937 3.49468 1.60702e-18)
(23.7021 3.49058 -8.62498e-19)
(23.6062 3.48548 -1.9607e-18)
(23.5057 3.47924 -2.39511e-20)
(23.4003 3.47174 1.21638e-18)
(23.2897 3.46283 -1.28793e-18)
(23.1736 3.45235 -7.41046e-19)
(23.0516 3.44012 2.36657e-18)
(22.9233 3.42594 8.49773e-19)
(22.7881 3.40957 9.59875e-19)
(22.6457 3.39077 1.08572e-18)
(22.4954 3.36926 -1.19865e-18)
(22.3366 3.34472 0)
(22.1686 3.31678 0)
(21.9908 3.28502 -3.30147e-18)
(21.8021 3.24899 -9.301e-19)
(21.6018 3.20813 0)
(21.3888 3.16178 0)
(21.1619 3.10917 -1.26494e-18)
(20.9196 3.04944 0)
(20.6606 2.98152 -2.39722e-18)
(20.383 2.90416 8.69579e-19)
(20.0848 2.81585 2.71704e-20)
(19.7637 2.71471 -2.80645e-18)
(19.417 2.5985 6.21725e-19)
(19.0416 2.46449 -2.14173e-18)
(18.6337 2.30921 -2.43224e-18)
(18.1892 2.12831 -1.86066e-18)
(17.703 1.91618 2.14582e-18)
(17.1691 1.66561 -2.46922e-18)
(16.5804 1.36689 1.41378e-18)
(15.9296 1.00836 1.6429e-18)
(15.2056 0.569108 -4.36489e-18)
(14.4026 0.0338993 5.56476e-19)
(13.4988 -0.648544 9.97125e-19)
(12.524 -1.49478 3.96619e-19)
(11.3798 -2.66181 5.39438e-18)
(10.4066 -4.15326 -4.04573e-18)
(25.708 3.49409 -1.36535e-18)
(25.7036 3.49498 -1.58631e-18)
(25.7067 3.51441 -1.61975e-18)
(25.699 3.51 1.92112e-18)
(25.6891 3.5057 6.56059e-20)
(25.6788 3.50512 0)
(25.6668 3.50403 6.86691e-20)
(25.6531 3.50229 -1.41649e-18)
(25.6384 3.50069 1.55828e-18)
(25.6226 3.49937 0)
(25.6059 3.49833 2.00824e-18)
(25.5881 3.49755 -2.11562e-18)
(25.5693 3.49696 -2.45116e-18)
(25.5494 3.4965 1.25443e-18)
(25.5284 3.49615 0)
(25.5064 3.49594 0)
(25.4833 3.49592 -1.76767e-18)
(25.4592 3.49614 -1.97789e-18)
(25.4342 3.49663 2.152e-18)
(25.4083 3.49742 4.85065e-18)
(25.3815 3.49851 3.53102e-20)
(25.3538 3.49988 -2.89994e-18)
(25.3251 3.50152 -6.86445e-20)
(25.2954 3.50338 -4.72484e-20)
(25.2647 3.50545 2.78893e-20)
(25.2328 3.50769 2.13762e-18)
(25.1997 3.51009 0)
(25.1654 3.51263 1.31342e-18)
(25.1298 3.5153 -2.82956e-18)
(25.0929 3.51811 -1.60808e-18)
(25.0546 3.52108 -7.1916e-20)
(25.0149 3.52419 -2.27401e-20)
(24.9737 3.52747 -2.08103e-18)
(24.931 3.5309 0)
(24.8868 3.53446 0)
(24.8409 3.53814 -1.40209e-18)
(24.7933 3.54191 -1.82226e-20)
(24.7438 3.54573 0)
(24.6924 3.5496 0)
(24.639 3.55346 -2.01313e-18)
(24.5835 3.5573 -1.106e-18)
(24.5257 3.56109 2.40074e-18)
(24.4655 3.56477 2.69195e-18)
(24.4029 3.5683 -1.44954e-18)
(24.3376 3.57165 3.23427e-18)
(24.2696 3.57475 4.2714e-20)
(24.1987 3.57755 0)
(24.1247 3.57998 -1.07302e-18)
(24.0475 3.58197 2.33707e-18)
(23.9668 3.58345 2.62086e-18)
(23.8824 3.58434 -1.38342e-18)
(23.7942 3.58456 -1.57584e-18)
(23.7018 3.58402 1.73638e-18)
(23.605 3.58263 0)
(23.5036 3.58028 -2.09378e-18)
(23.3972 3.57684 0)
(23.2855 3.57219 0)
(23.1681 3.56617 0)
(23.0447 3.55862 -1.5698e-18)
(22.9148 3.54933 8.85318e-19)
(22.7779 3.53812 9.71447e-19)
(22.6335 3.52472 0)
(22.481 3.50889 3.6213e-20)
(22.3199 3.49032 2.3334e-20)
(22.1493 3.46866 0)
(21.9685 3.44351 7.90527e-19)
(21.7767 3.41443 8.85506e-19)
(21.5728 3.38087 -2.00106e-18)
(21.3558 3.34222 0)
(21.1244 3.29772 0)
(20.8771 3.24653 0)
(20.6124 3.18761 7.65063e-19)
(20.3285 3.11971 8.62923e-19)
(20.0231 3.04134 0)
(19.6938 2.95067 -3.08546e-20)
(19.3378 2.84546 3.78367e-18)
(18.9517 2.72294 6.9855e-19)
(18.5315 2.57961 1.6457e-18)
(18.0727 2.41106 -3.28185e-18)
(17.5697 2.21152 -1.46097e-20)
(17.0162 1.97361 5.88241e-19)
(16.4042 1.68718 -7.4285e-19)
(15.7255 1.33989 8.22038e-19)
(14.968 0.910029 3.96622e-18)
(14.1244 0.380448 0)
(13.1715 -0.303974 3.19634e-18)
(12.1351 -1.16153 3.00862e-18)
(10.918 -2.36045 -4.09678e-18)
(9.89313 -3.91673 2.11556e-18)
(25.7106 3.51497 2.68605e-18)
(25.7046 3.51059 0)
(25.7071 3.52733 1.58738e-18)
(25.6994 3.52407 3.67706e-18)
(25.6891 3.5199 -1.92221e-18)
(25.6784 3.51932 -2.21086e-18)
(25.6663 3.51873 5.09463e-18)
(25.6525 3.5176 -5.53597e-18)
(25.6376 3.5166 0)
(25.6218 3.51594 1.76266e-18)
(25.6051 3.5156 -1.85683e-18)
(25.5875 3.51558 0)
(25.5689 3.51583 0)
(25.5493 3.51625 0)
(25.5286 3.51683 2.7999e-18)
(25.5068 3.51759 0)
(25.484 3.51855 1.73268e-18)
(25.4602 3.51978 -1.94394e-18)
(25.4354 3.52131 -6.08022e-20)
(25.4098 3.52317 -2.28814e-18)
(25.3833 3.52536 -2.6413e-18)
(25.3558 3.52788 5.56029e-18)
(25.3274 3.53071 0)
(25.298 3.53382 3.35838e-18)
(25.2675 3.53718 3.72435e-18)
(25.236 3.54077 -6.37629e-20)
(25.2032 3.54456 2.20855e-18)
(25.1692 3.54854 0)
(25.1339 3.5527 0)
(25.0972 3.55703 3.0461e-18)
(25.0592 3.56156 -1.56609e-18)
(25.0197 3.56628 -1.74911e-18)
(24.9788 3.5712 1.97917e-18)
(24.9363 3.57633 2.17653e-18)
(24.8922 3.58166 -2.46589e-18)
(24.8465 3.58716 3.95697e-18)
(24.799 3.59283 3.88619e-20)
(24.7496 3.59863 0)
(24.6983 3.60455 -1.74767e-18)
(24.645 3.61055 0)
(24.5895 3.6166 2.11218e-18)
(24.5317 3.62268 -4.67811e-18)
(24.4715 3.62875 -1.31389e-18)
(24.4088 3.63476 -3.62229e-20)
(24.3434 3.64069 -3.15492e-18)
(24.2753 3.64647 3.42711e-18)
(24.2041 3.65206 7.65819e-20)
(24.1299 3.6574 -2.03318e-18)
(24.0523 3.66244 1.13803e-18)
(23.9712 3.66709 -1.23262e-18)
(23.8864 3.67131 1.39219e-18)
(23.7976 3.67501 -4.24607e-20)
(23.7047 3.67811 -6.97146e-20)
(23.6072 3.68052 1.82045e-18)
(23.505 3.68214 2.05882e-18)
(23.3977 3.68286 -1.15675e-18)
(23.285 3.68256 -5.27301e-20)
(23.1665 3.68111 -5.86124e-20)
(23.0418 3.67834 3.02088e-18)
(22.9105 3.67408 -8.65768e-19)
(22.772 3.66814 -5.45848e-20)
(22.6259 3.66029 3.0904e-18)
(22.4715 3.6503 2.31482e-18)
(22.3082 3.63786 -3.84063e-18)
(22.1352 3.62266 -1.45925e-18)
(21.9517 3.60432 1.55357e-18)
(21.7569 3.58241 1.77203e-18)
(21.5497 3.55642 8.16289e-21)
(21.3289 3.52574 0)
(21.0932 3.48967 -1.2651e-18)
(20.8412 3.44738 2.0626e-18)
(20.5711 3.39785 -7.59886e-19)
(20.2811 3.33988 0)
(19.9688 3.27201 -1.01255e-18)
(19.6316 3.19243 1.09e-18)
(19.2664 3.09892 -2.52839e-18)
(18.8697 2.98872 -2.88087e-18)
(18.4373 2.85832 3.29065e-18)
(17.9642 2.70327 3.7667e-18)
(17.4444 2.51769 1.07177e-20)
(16.8709 2.29405 2.50301e-18)
(16.2351 2.02182 7.52936e-19)
(15.5276 1.68806 -4.27967e-18)
(14.7352 1.27029 -2.0161e-18)
(13.8486 0.749369 0)
(12.8431 0.066743 -2.89189e-18)
(11.7393 -0.798284 -3.96728e-18)
(10.4403 -2.03211 4.92322e-18)
(9.31144 -3.64031 0)
(25.7128 3.53255 0)
(25.7054 3.52533 0)
(25.7075 3.5398 0)
(25.6999 3.5375 -1.77173e-18)
(25.6893 3.53363 -2.05129e-18)
(25.6784 3.53313 2.16049e-18)
(25.6662 3.53301 -2.2357e-20)
(25.6524 3.53249 -2.70792e-18)
(25.6375 3.53212 -3.00095e-18)
(25.6218 3.53212 0)
(25.6052 3.5325 -3.66471e-18)
(25.5877 3.53325 0)
(25.5693 3.53431 2.22721e-18)
(25.55 3.53561 0)
(25.5296 3.53711 -2.75262e-18)
(25.5081 3.53881 3.08762e-18)
(25.4856 3.54075 4.15767e-20)
(25.4622 3.54298 0)
(25.4378 3.54553 2.00439e-18)
(25.4124 3.54844 -2.24197e-18)
(25.3862 3.55172 -7.23946e-20)
(25.359 3.55537 -2.67873e-18)
(25.331 3.55938 2.94745e-18)
(25.3019 3.56372 -6.54431e-18)
(25.2718 3.56836 -1.81617e-18)
(25.2406 3.57329 2.6697e-20)
(25.2082 3.57847 -2.13413e-18)
(25.1745 3.58389 0)
(25.1396 3.58953 2.69413e-18)
(25.1033 3.5954 -2.74735e-18)
(25.0656 3.6015 -1.51662e-18)
(25.0264 3.60784 3.50713e-18)
(24.9857 3.61443 -3.91924e-18)
(24.9435 3.62128 -2.22995e-18)
(24.8997 3.62838 -9.69481e-20)
(24.8541 3.63573 5.06023e-18)
(24.8068 3.64331 0)
(24.7577 3.6511 0)
(24.7066 3.65909 -2.30146e-20)
(24.6534 3.66724 -1.9607e-20)
(24.598 3.67553 -2.07912e-18)
(24.5404 3.68393 -3.13205e-20)
(24.4803 3.69241 -1.30149e-18)
(24.4176 3.70094 2.66638e-18)
(24.3523 3.70947 1.48122e-18)
(24.284 3.71798 0)
(24.2128 3.72641 0)
(24.1384 3.73472 2.05893e-18)
(24.0607 3.74284 -4.41129e-18)
(23.9793 3.75074 0)
(23.8942 3.75833 -4.05528e-18)
(23.805 3.76556 -1.55796e-18)
(23.7116 3.77235 1.60844e-18)
(23.6136 3.77863 0)
(23.5108 3.78429 1.98744e-18)
(23.4027 3.78925 -1.13e-18)
(23.2892 3.79339 2.44711e-18)
(23.1698 3.79659 -4.01311e-18)
(23.044 3.7987 -1.53408e-20)
(22.9115 3.79957 0)
(22.7716 3.79902 -1.84667e-18)
(22.624 3.79685 -2.04889e-18)
(22.4678 3.79282 1.16004e-18)
(22.3026 3.78667 5.34271e-21)
(22.1274 3.77809 1.37302e-18)
(21.9415 3.76674 -3.15736e-18)
(21.744 3.7522 8.13241e-19)
(21.5336 3.73399 1.96273e-18)
(21.3093 3.71154 -1.06611e-18)
(21.0697 3.68418 0)
(20.8132 3.65111 2.73531e-18)
(20.5381 3.61135 3.07787e-18)
(20.2422 3.56375 0)
(19.9232 3.50686 -1.00848e-18)
(19.5783 3.43891 6.74638e-21)
(19.2043 3.35774 -3.76211e-18)
(18.7973 3.26061 2.14123e-18)
(18.3528 3.144 1.6574e-18)
(17.8654 3.00346 -7.59163e-18)
(17.3287 2.83302 -1.11887e-18)
(16.735 2.62501 -6.55529e-19)
(16.0749 2.36858 -3.02581e-18)
(15.3377 2.05019 3.44304e-18)
(14.5087 1.64657 -3.70701e-18)
(13.5766 1.13649 6.09062e-19)
(12.5148 0.458195 0)
(11.3377 -0.412085 0)
(9.94914 -1.67458 6.67362e-19)
(8.66383 -3.31062 -6.94923e-19)
(25.7148 3.54751 0)
(25.706 3.5389 0)
(25.7078 3.55151 0)
(25.7004 3.55013 1.31903e-19)
(25.6897 3.54677 -1.90126e-18)
(25.6787 3.54645 4.3363e-18)
(25.6666 3.5468 -4.74668e-18)
(25.6528 3.54691 8.03198e-18)
(25.638 3.54719 8.80746e-20)
(25.6223 3.54788 0)
(25.6058 3.54898 3.61321e-18)
(25.5886 3.55049 2.02418e-18)
(25.5704 3.55237 -4.32879e-18)
(25.5514 3.55454 0)
(25.5313 3.55694 2.7097e-18)
(25.5103 3.55959 -2.85527e-18)
(25.4882 3.5625 4.72014e-20)
(25.4651 3.56572 -3.47394e-18)
(25.441 3.56929 2.72902e-20)
(25.416 3.57324 6.66541e-20)
(25.3902 3.5776 -8.01005e-20)
(25.3634 3.58237 5.20403e-18)
(25.3356 3.58754 -5.90036e-20)
(25.3069 3.59309 6.33022e-18)
(25.2772 3.59901 0)
(25.2464 3.60525 0)
(25.2144 3.61181 0)
(25.1812 3.61866 0)
(25.1467 3.62579 -5.12524e-18)
(25.1108 3.6332 5.57861e-18)
(25.0735 3.64088 6.20464e-18)
(25.0348 3.64886 -1.68298e-18)
(24.9944 3.65714 -3.75619e-18)
(24.9526 3.66572 2.01375e-18)
(24.909 3.67461 0)
(24.8638 3.68382 -7.51142e-18)
(24.8168 3.69332 -2.81988e-18)
(24.7679 3.70312 -2.80635e-20)
(24.717 3.71319 0)
(24.6641 3.7235 3.44382e-20)
(24.609 3.73405 0)
(24.5515 3.7448 -2.24987e-18)
(24.4916 3.75572 4.82026e-18)
(24.4291 3.76679 -2.68946e-18)
(24.3639 3.77797 -1.49981e-18)
(24.2957 3.78924 -6.66321e-20)
(24.2246 3.80055 1.7456e-18)
(24.1502 3.81185 0)
(24.0723 3.82312 -2.14345e-18)
(23.9909 3.83429 0)
(23.9056 3.84531 5.25634e-18)
(23.8162 3.85612 -1.48302e-18)
(23.7224 3.86667 1.56995e-18)
(23.6241 3.87687 1.8089e-18)
(23.5208 3.88664 -3.82564e-18)
(23.4122 3.89591 -2.11882e-18)
(23.2981 3.90457 0)
(23.1779 3.9125 2.66475e-18)
(23.0513 3.91959 -1.476e-18)
(22.9177 3.92569 0)
(22.7768 3.93064 -1.79501e-18)
(22.6278 3.93425 0)
(22.4702 3.93631 0)
(22.3033 3.93659 -1.27096e-18)
(22.1263 3.9348 2.76993e-18)
(21.9382 3.93061 1.61979e-18)
(21.7382 3.92365 7.98762e-20)
(21.5251 3.91345 4.88706e-20)
(21.2977 3.8995 0)
(21.0545 3.88114 0)
(20.7939 3.85763 -4.04904e-18)
(20.5141 3.82802 -3.00139e-18)
(20.2128 3.79122 -5.14895e-18)
(19.8876 3.74583 -1.00759e-18)
(19.5356 3.69014 3.31749e-18)
(19.1532 3.62203 2.53884e-18)
(18.7364 3.53881 7.45485e-19)
(18.2803 3.43701 -4.13807e-18)
(17.7793 3.31216 3.83378e-18)
(17.2261 3.15832 0)
(16.6126 2.96767 -2.5941e-18)
(15.9283 2.72915 4.60738e-18)
(15.1612 2.42868 -1.75425e-18)
(14.2951 2.04232 4.29521e-18)
(13.3161 1.54674 0)
(12.195 0.877368 0)
(10.9403 0.00700446 5.08718e-19)
(9.45686 -1.27597 -5.34925e-19)
(8.03575 -2.94216 -3.87753e-19)
(25.717 3.56025 0)
(25.7069 3.55129 0)
(25.7082 3.5624 -3.09311e-18)
(25.7011 3.56193 6.96283e-18)
(25.6904 3.55922 -7.57611e-18)
(25.6794 3.55921 -4.21751e-18)
(25.6673 3.56005 -2.40148e-18)
(25.6537 3.5608 2.57945e-18)
(25.639 3.56176 1.3813e-19)
(25.6235 3.56315 -6.33565e-18)
(25.6072 3.56498 -4.36223e-20)
(25.5901 3.56726 -3.80816e-18)
(25.5723 3.56995 -2.02516e-18)
(25.5535 3.57298 2.41063e-20)
(25.5339 3.57629 8.84152e-20)
(25.5132 3.57987 -5.66203e-18)
(25.4916 3.58374 6.13156e-18)
(25.4689 3.58795 1.22101e-19)
(25.4453 3.59253 -1.76908e-18)
(25.4207 3.59752 -6.16993e-18)
(25.3952 3.60294 -2.32499e-18)
(25.3688 3.60882 -2.50192e-18)
(25.3415 3.61514 -2.81665e-18)
(25.3132 3.62189 3.4826e-20)
(25.2839 3.62905 -1.00791e-17)
(25.2536 3.6366 5.52713e-18)
(25.2221 3.64452 -4.01119e-18)
(25.1893 3.65279 -7.68475e-20)
(25.1553 3.6614 -4.71849e-20)
(25.1199 3.67034 5.43161e-18)
(25.0831 3.67962 -5.94389e-18)
(25.0448 3.68923 -3.32171e-18)
(25.0049 3.6992 7.24858e-18)
(24.9635 3.70953 -1.94977e-18)
(24.9203 3.72023 -4.40202e-18)
(24.8755 3.73131 4.79704e-18)
(24.8288 3.74275 2.6793e-18)
(24.7803 3.75456 2.94763e-18)
(24.7298 3.76672 -3.17407e-18)
(24.6772 3.77922 1.78393e-18)
(24.6224 3.79203 0)
(24.5652 3.80514 6.95616e-20)
(24.5056 3.81852 -2.30876e-18)
(24.4433 3.83215 2.5657e-18)
(24.3783 3.84601 1.45899e-18)
(24.3104 3.86006 -3.14935e-18)
(24.2394 3.87428 1.69923e-18)
(24.1651 3.88862 1.95289e-18)
(24.0874 3.90306 -2.09378e-18)
(24.006 3.91755 2.2785e-18)
(23.9207 3.93204 -5.12886e-18)
(23.8312 3.94648 1.44826e-18)
(23.7373 3.96082 -1.53354e-18)
(23.6388 3.975 -1.76885e-18)
(23.5352 3.98895 5.75829e-18)
(23.4263 4.00259 -4.17348e-18)
(23.3117 4.01583 -1.19907e-18)
(23.191 4.02858 -1.30524e-18)
(23.0637 4.04073 1.47385e-18)
(22.9294 4.05215 -6.37438e-18)
(22.7876 4.06271 3.52481e-18)
(22.6376 4.07222 -2.021e-18)
(22.4788 4.0805 3.20765e-18)
(22.3105 4.08735 3.62914e-18)
(22.1319 4.0925 0)
(21.9421 4.09565 0)
(21.74 4.09646 1.74704e-18)
(21.5245 4.09451 -1.86679e-18)
(21.2943 4.08931 2.13076e-18)
(21.0479 4.08026 0)
(20.7837 4.06665 2.17828e-20)
(20.4997 4.04761 -3.0454e-18)
(20.1935 4.02208 -8.64727e-19)
(19.8626 3.98875 9.57441e-19)
(19.5039 3.94598 0)
(19.1137 3.89172 3.84965e-18)
(18.6877 3.82334 -1.42265e-18)
(18.2208 3.73747 8.64283e-19)
(17.7066 3.6297 -1.9458e-18)
(17.1376 3.49412 1.09939e-18)
(16.5048 3.3229 2.64203e-18)
(15.7967 3.10486 0)
(14.9998 2.82552 0)
(14.0963 2.46045 4.48172e-18)
(13.069 1.98431 -5.4712e-18)
(11.8862 1.33041 0)
(10.5488 0.467478 0)
(8.96352 -0.83134 -5.39228e-18)
(7.41657 -2.53132 -7.34704e-18)
(25.7192 3.57114 2.59071e-18)
(25.7081 3.56256 3.8878e-21)
(25.7088 3.57247 -3.12849e-18)
(25.7019 3.57288 0)
(25.6913 3.57095 -3.86025e-18)
(25.6803 3.57135 8.2471e-18)
(25.6684 3.57272 -4.54253e-18)
(25.6551 3.57413 8.59509e-20)
(25.6406 3.57578 -2.73051e-18)
(25.6252 3.57789 0)
(25.6091 3.58047 3.42878e-18)
(25.5923 3.58353 3.7754e-18)
(25.5747 3.58703 -2.01609e-18)
(25.5564 3.59091 2.08838e-18)
(25.5372 3.59512 4.95373e-18)
(25.5169 3.59963 -5.51162e-18)
(25.4958 3.60445 2.88247e-18)
(25.4736 3.60964 3.36761e-18)
(25.4504 3.61522 0)
(25.4263 3.62124 8.08008e-18)
(25.4013 3.62772 -4.47409e-18)
(25.3754 3.63468 7.29998e-18)
(25.3485 3.64214 0)
(25.3207 3.65007 -3.03309e-18)
(25.2919 3.65846 3.16488e-18)
(25.262 3.6673 3.51661e-18)
(25.231 3.67657 1.99683e-18)
(25.1988 3.68625 -2.19605e-18)
(25.1653 3.69632 2.41592e-18)
(25.1305 3.70679 0)
(25.0942 3.71765 2.85137e-18)
(25.0564 3.7289 -1.13288e-19)
(25.0171 3.74056 1.55217e-18)
(24.9761 3.75265 -8.17544e-20)
(24.9335 3.76516 6.39393e-18)
(24.8891 3.77811 9.84059e-20)
(24.8429 3.7915 1.07924e-19)
(24.7948 3.80533 -5.56707e-18)
(24.7448 3.8196 3.14981e-18)
(24.6926 3.83428 -1.75176e-18)
(24.6382 3.84937 -7.85376e-20)
(24.5814 3.86486 4.13749e-18)
(24.5221 3.88071 -2.3385e-18)
(24.4603 3.89693 -2.56783e-18)
(24.3956 3.91348 -9.29019e-20)
(24.328 3.93034 7.59123e-18)
(24.2573 3.94749 -3.37869e-18)
(24.1833 3.9649 1.824e-18)
(24.1057 3.98254 0)
(24.0245 4.00037 -2.24264e-18)
(23.9393 4.01837 5.00333e-18)
(23.8499 4.03648 1.41395e-18)
(23.7561 4.05467 -2.96077e-18)
(23.6575 4.07288 -1.65604e-18)
(23.5538 4.09105 0)
(23.4447 4.10912 2.08895e-18)
(23.3299 4.12702 7.41675e-20)
(23.2088 4.14467 7.2895e-20)
(23.0811 4.16196 0)
(22.9463 4.17879 6.27234e-18)
(22.8038 4.19504 0)
(22.653 4.21057 1.92541e-18)
(22.4932 4.2252 -2.1761e-18)
(22.3238 4.23875 -2.42596e-18)
(22.1438 4.251 -1.29316e-18)
(21.9524 4.26167 -1.47118e-18)
(21.7485 4.27045 0)
(21.531 4.27697 0)
(21.2983 4.28078 -2.13143e-18)
(21.0491 4.28134 -1.22431e-18)
(20.7816 4.27799 1.34066e-18)
(20.4937 4.26991 3.05305e-18)
(20.1831 4.25614 5.22728e-18)
(19.8469 4.23543 -1.9097e-18)
(19.4819 4.20623 2.22135e-18)
(19.0844 4.16659 -1.59852e-20)
(18.6496 4.11402 2.92022e-18)
(18.1721 4.04523 0)
(17.6451 3.95594 0)
(17.0607 3.84034 -4.56676e-18)
(16.4087 3.6907 1.38738e-18)
(15.6767 3.49582 8.13599e-19)
(14.8497 3.24097 9.26759e-19)
(13.9078 2.90144 -3.41822e-18)
(12.8305 2.4501 -1.41129e-18)
(11.5827 1.81867 6.21804e-18)
(10.1571 0.970625 -7.43843e-18)
(8.46069 -0.339002 -7.20946e-19)
(6.74416 -2.04975 -1.22717e-19)
(25.7216 3.58044 2.05144e-18)
(25.7097 3.57274 0)
(25.7097 3.58172 3.04814e-18)
(25.703 3.583 0)
(25.6925 3.58194 3.78843e-18)
(25.6816 3.58286 -3.99037e-18)
(25.6699 3.58478 2.22161e-18)
(25.6568 3.58687 4.99258e-18)
(25.6426 3.58923 -5.45519e-18)
(25.6275 3.59207 -1.34715e-19)
(25.6116 3.5954 3.23858e-18)
(25.5951 3.59924 0)
(25.5779 3.60355 4.04351e-18)
(25.5599 3.60828 -4.44528e-18)
(25.5411 3.61338 -4.85443e-18)
(25.5214 3.61881 2.57516e-18)
(25.5007 3.62459 -9.84333e-20)
(25.4791 3.63074 0)
(25.4565 3.63732 -3.50121e-18)
(25.4329 3.64436 -7.82328e-18)
(25.4084 3.65189 2.18424e-18)
(25.3829 3.65993 -4.74385e-18)
(25.3566 3.6685 -2.57382e-18)
(25.3293 3.6776 0)
(25.301 3.68721 3.11426e-18)
(25.2717 3.69732 3.42468e-18)
(25.2412 3.70791 0)
(25.2096 3.71897 0)
(25.1767 3.7305 0)
(25.1425 3.74247 9.35826e-20)
(25.1068 3.7549 -2.71723e-18)
(25.0696 3.76779 -6.14028e-18)
(25.0309 3.78114 -3.43692e-18)
(24.9906 3.79498 3.68047e-18)
(24.9485 3.8093 -2.02673e-18)
(24.9047 3.82414 -2.23203e-18)
(24.859 3.83948 2.54844e-18)
(24.8115 3.85534 1.88796e-19)
(24.7619 3.87171 -2.96281e-18)
(24.7102 3.88859 -4.98583e-18)
(24.6563 3.90596 1.797e-18)
(24.6 3.92383 0)
(24.5413 3.94217 -2.27437e-18)
(24.4799 3.96098 2.46369e-18)
(24.4156 3.98023 -2.73447e-18)
(24.3485 3.99992 -3.0147e-18)
(24.2782 4.02002 -3.24746e-18)
(24.2045 4.04051 0)
(24.1273 4.06138 -1.97877e-18)
(24.0464 4.08259 2.23541e-18)
(23.9615 4.10412 -5.37798e-20)
(23.8723 4.12593 0)
(23.7786 4.148 1.4901e-18)
(23.6802 4.17027 3.31179e-18)
(23.5766 4.19271 -3.66785e-18)
(23.4675 4.21526 1.98758e-18)
(23.3526 4.23787 4.57496e-18)
(23.2314 4.26046 -4.91842e-18)
(23.1034 4.28295 0)
(22.9683 4.30527 -3.11002e-18)
(22.8253 4.32729 -3.39958e-18)
(22.6739 4.34891 -1.92602e-18)
(22.5135 4.36999 -2.18268e-18)
(22.3432 4.39035 1.10758e-18)
(22.1621 4.4098 3.97624e-18)
(21.9695 4.42812 -1.52477e-18)
(21.7641 4.44502 4.93724e-18)
(21.5447 4.46018 -1.91948e-18)
(21.31 4.4732 3.13567e-18)
(21.0583 4.48358 1.19676e-18)
(20.7879 4.49073 2.69206e-18)
(20.4965 4.49392 0)
(20.1817 4.49224 1.76752e-18)
(19.8407 4.48455 -9.03242e-19)
(19.47 4.4694 -4.48451e-18)
(19.0656 4.44497 -9.15361e-20)
(18.6225 4.40887 -3.04201e-18)
(18.135 4.35798 7.82464e-19)
(17.5959 4.28816 1.99042e-18)
(16.9964 4.19378 8.16609e-18)
(16.3257 4.0672 -1.41786e-18)
(15.5702 3.89735 -8.21306e-18)
(14.7131 3.66933 -3.93622e-18)
(13.7323 3.35823 4.81033e-18)
(12.6036 2.93519 1.19388e-17)
(11.288 2.33068 -7.54006e-18)
(9.76871 1.5015 1.04178e-17)
(7.95311 0.190349 -7.96823e-19)
(6.02293 -1.49633 1.83158e-17)
(25.7241 3.58836 4.16195e-18)
(25.7116 3.5819 2.95386e-18)
(25.7108 3.59019 3.00967e-18)
(25.7043 3.5923 0)
(25.694 3.59219 0)
(25.6832 3.5937 0)
(25.6717 3.59623 4.48625e-18)
(25.659 3.599 -2.289e-18)
(25.645 3.60209 2.62638e-18)
(25.6302 3.60567 -2.99453e-18)
(25.6147 3.60976 3.15488e-18)
(25.5985 3.61438 3.61781e-18)
(25.5817 3.61949 -3.8118e-18)
(25.5641 3.62507 0)
(25.5458 3.63104 2.29052e-18)
(25.5266 3.63738 -1.38449e-20)
(25.5065 3.6441 -2.79407e-18)
(25.4854 3.65122 -3.0755e-18)
(25.4633 3.65879 3.49054e-18)
(25.4403 3.66684 1.15533e-19)
(25.4164 3.67541 2.13481e-18)
(25.3915 3.68452 8.13822e-20)
(25.3658 3.6942 2.56641e-18)
(25.339 3.70444 -2.73849e-18)
(25.3113 3.71524 -6.2336e-18)
(25.2826 3.7266 3.19607e-18)
(25.2528 3.7385 3.78291e-18)
(25.2218 3.75093 -5.91544e-18)
(25.1895 3.76387 -2.19412e-18)
(25.1559 3.77734 2.49966e-18)
(25.1209 3.79132 -2.66835e-18)
(25.0844 3.80583 1.14141e-19)
(25.0464 3.82086 -3.21972e-18)
(25.0067 3.83644 -7.23472e-18)
(24.9653 3.85258 2.02213e-18)
(24.9222 3.86929 -1.76501e-20)
(24.8772 3.88658 -1.03054e-19)
(24.8302 3.90447 7.93727e-18)
(24.7813 3.92294 3.00116e-18)
(24.7302 3.94201 1.76264e-18)
(24.6769 3.96168 -1.74637e-18)
(24.6212 3.98193 0)
(24.563 4.00275 2.21323e-18)
(24.5021 4.02415 7.89548e-20)
(24.4385 4.04612 2.59608e-18)
(24.3719 4.06864 2.96975e-18)
(24.3021 4.0917 -3.05755e-18)
(24.229 4.11529 0)
(24.1523 4.13939 -2.07566e-20)
(24.0718 4.16399 -9.33633e-20)
(23.9873 4.18907 -2.52026e-18)
(23.8985 4.21461 5.29152e-18)
(23.8052 4.24057 2.43385e-20)
(23.7071 4.26694 -3.20023e-18)
(23.6037 4.29367 -1.71041e-18)
(23.4949 4.32073 -3.9168e-18)
(23.3801 4.34808 2.18433e-18)
(23.2589 4.37566 -3.3773e-20)
(23.131 4.4034 5.36817e-18)
(22.9957 4.43125 -1.55454e-18)
(22.8526 4.45911 5.06616e-18)
(22.7009 4.48689 0)
(22.54 4.51448 0)
(22.3692 4.54174 0)
(22.1875 4.5685 -2.60491e-18)
(21.9939 4.59458 0)
(21.7873 4.61973 -3.33219e-18)
(21.5666 4.64368 3.685e-18)
(21.3302 4.66606 -1.07426e-18)
(21.0766 4.68646 -1.22498e-18)
(20.8037 4.70435 -1.37207e-18)
(20.5095 4.71909 2.92809e-18)
(20.1913 4.72983 1.67996e-18)
(19.8462 4.73555 3.90179e-18)
(19.4705 4.73492 0)
(19.06 4.72626 -2.59587e-18)
(18.6096 4.70733 -1.53668e-18)
(18.1131 4.6752 1.68445e-18)
(17.5629 4.62594 -1.04257e-18)
(16.9496 4.55412 -3.61076e-18)
(16.2615 4.45235 0)
(15.4838 4.30976 3.10897e-20)
(14.5981 4.11146 3.03821e-18)
(13.5796 3.83262 -7.54924e-18)
(12.4001 3.44294 -8.67856e-18)
(11.0159 2.87213 -8.21255e-18)
(9.40024 2.06953 1.21335e-17)
(7.46015 0.771859 -1.48404e-17)
(5.32003 -0.887698 -1.05288e-17)
(25.7266 3.59509 2.53101e-18)
(25.7138 3.59011 -8.72547e-18)
(25.7123 3.59791 -3.00756e-18)
(25.7059 3.60083 0)
(25.6958 3.60169 0)
(25.6852 3.60389 -3.87855e-18)
(25.6739 3.60705 -8.62997e-18)
(25.6615 3.61052 4.62146e-18)
(25.6479 3.61435 -2.62472e-18)
(25.6335 3.61867 0)
(25.6183 3.62352 3.09133e-18)
(25.6025 3.62891 0)
(25.5861 3.63483 0)
(25.569 3.64123 0)
(25.5512 3.64807 -2.31036e-18)
(25.5325 3.65531 5.00045e-18)
(25.513 3.66296 2.79286e-18)
(25.4925 3.67104 -2.19151e-20)
(25.4711 3.67958 6.67216e-18)
(25.4487 3.68864 -3.47109e-18)
(25.4254 3.69823 2.0668e-18)
(25.4011 3.70841 -6.63996e-18)
(25.376 3.71917 -1.05111e-19)
(25.3499 3.73054 5.37724e-18)
(25.3228 3.74252 -3.02943e-18)
(25.2947 3.75511 -6.65274e-18)
(25.2655 3.76829 1.07001e-17)
(25.2352 3.78206 1.42067e-19)
(25.2037 3.79641 2.21684e-18)
(25.1708 3.81134 -4.68348e-18)
(25.1365 3.82685 2.66874e-18)
(25.1008 3.84296 2.93805e-18)
(25.0635 3.85966 0)
(25.0246 3.87697 5.3576e-18)
(24.9839 3.8949 -5.69217e-18)
(24.9415 3.91348 -2.09342e-18)
(24.8972 3.93272 2.39951e-18)
(24.851 3.95262 -2.51551e-18)
(24.8028 3.9732 -2.79283e-18)
(24.7524 3.99446 -3.09139e-18)
(24.6998 4.01641 1.77108e-18)
(24.6448 4.03904 -1.8714e-18)
(24.5873 4.06235 -8.02505e-20)
(24.5271 4.08634 2.27681e-18)
(24.4641 4.11102 -5.1261e-18)
(24.3982 4.13637 2.78825e-18)
(24.3291 4.16239 3.16917e-18)
(24.2566 4.18908 5.16933e-18)
(24.1805 4.21643 -3.75044e-18)
(24.1006 4.24443 2.15913e-18)
(24.0167 4.27307 -4.58931e-18)
(23.9285 4.30234 2.54948e-18)
(23.8358 4.33222 -2.89926e-18)
(23.7381 4.3627 4.83713e-18)