/*--------------------------------*- C++ -*----------------------------------*\
  =========                 |
  \\      /  F ield         | OpenFOAM: The Open Source CFD Toolbox
   \\    /   O peration     | Website:  https://openfoam.org
    \\  /    A nd           | Version:  11
     \\/     M anipulation  |
\*---------------------------------------------------------------------------*/
FoamFile
{
    format      ascii;
    class       volScalarField;
    location    "150";
    object      p;
}
// * * * * * * * * * * * * * * * * * * * * * * * * * * * * * * * * * * * * * //

dimensions      [0 2 -2 0 0 0 0];

internalField   nonuniform List<scalar> 
31595
(
11.7776
8.02227
8.81547
9.21958
9.7877
10.0919
10.6492
11.1242
11.6645
12.2037
12.7797
13.3711
13.9905
14.633
15.3027
15.9989
16.7238
17.4778
18.2625
19.0785
19.9272
20.8095
21.7265
22.6794
23.6692
24.697
25.7639
26.8711
28.0196
29.2105
30.445
31.7243
33.0498
34.4226
35.8441
37.3159
38.8397
40.4171
42.05
43.7404
45.4906
47.3028
49.1797
51.1241
53.1391
55.2277
57.3937
59.6407
61.9729
64.3948
66.911
69.5264
72.2466
75.0773
78.0245
81.0951
84.2958
87.6345
91.1189
94.758
98.5609
102.538
106.699
111.056
115.622
120.41
125.434
130.711
136.257
142.091
148.232
154.703
161.526
168.727
176.333
184.371
192.873
201.87
211.391
221.465
232.117
243.355
255.176
267.521
280.315
293.227
306.134
317.38
328.19
9.82263
8.59983
8.34776
9.11973
9.62276
10.0123
10.5062
11.0111
11.5294
12.0668
12.6285
13.2113
13.8177
14.4485
15.1048
15.7878
16.4985
17.2379
18.0074
18.8077
19.6402
20.5057
21.4054
22.3403
23.3115
24.3204
25.3678
26.455
27.5831
28.7533
29.9668
31.225
32.5289
33.8801
35.2801
36.7304
38.2329
39.7892
41.4012
43.071
44.8011
46.5937
48.4516
50.3776
52.3748
54.4464
56.5962
58.8278
61.1456
63.5539
66.0575
68.6614
71.3712
74.1926
77.1318
80.1957
83.3914
86.7264
90.2089
93.8479
97.6529
101.634
105.802
110.17
114.749
119.553
124.599
129.901
135.479
141.35
147.535
154.059
160.944
168.218
175.91
184.049
192.67
201.805
211.488
221.752
232.624
244.119
256.235
268.917
282.083
295.396
308.673
320.236
330.972
8.88372
8.56363
8.19039
8.93368
9.4826
9.89295
10.3662
10.8706
11.3802
11.9079
12.4575
13.0286
13.622
14.2393
14.8816
15.5498
16.2453
16.969
17.722
18.5055
19.3204
20.1678
21.0489
21.9646
22.9161
23.9045
24.9311
25.9969
27.1032
28.2512
29.4421
30.6772
31.9581
33.286
34.6626
36.0894
37.5683
39.101
40.6897
42.3365
44.0436
45.8137
47.6494
49.5537
51.5295
53.5805
55.71
57.9221
60.2209
62.6109
65.0969
67.6841
70.3779
73.1842
76.1094
79.1602
82.3439
85.6683
89.1415
92.7729
96.5717
100.549
104.715
109.083
113.665
118.476
123.532
128.848
134.445
140.34
146.557
153.12
160.053
167.385
175.147
183.371
192.093
201.35
211.178
221.616
232.693
244.431
256.833
269.847
283.386
297.118
310.781
322.734
333.355
8.5065
8.4461
8.09483
8.76484
9.33981
9.7566
10.2164
10.7114
11.2124
11.7282
12.2649
12.8227
13.4021
14.0047
14.6317
15.2843
15.9634
16.6701
17.4057
18.1712
18.9675
19.7958
20.6571
21.5525
22.4831
23.4501
24.4546
25.4979
26.5811
27.7055
28.8725
30.0835
31.3397
32.6427
33.9942
35.396
36.8496
38.357
39.9203
41.5418
43.2239
44.969
46.78
48.6598
50.6114
52.6385
54.7446
56.9337
59.2099
61.5778
64.0422
66.6083
69.2817
72.0683
74.9744
78.0069
81.1731
84.481
87.9389
91.5559
95.342
99.3076
103.464
107.824
112.401
117.21
122.266
127.586
133.19
139.099
145.335
151.923
158.889
166.263
174.079
182.371
191.177
200.536
210.49
221.079
232.341
244.303
256.971
270.305
284.209
298.367
312.432
324.828
335.324
8.28411
8.35865
8.01731
8.61914
9.19558
9.61228
10.0563
10.5378
11.0274
11.5298
12.0521
12.5951
13.1593
13.7461
14.3567
14.9923
15.654
16.3428
17.0598
17.8061
18.5827
19.3907
20.2312
21.1051
22.0137
22.958
23.9392
24.9587
26.0176
27.1171
28.2589
29.444
30.6742
31.9509
33.2757
34.6503
36.0767
37.5569
39.0929
40.6869
42.3415
44.0592
45.8429
47.6954
49.62
51.6202
53.6996
55.8622
58.1122
60.4543
62.8932
65.434
68.0826
70.8449
73.7272
76.7365
79.8801
83.166
86.6028
90.1998
93.9667
97.9145
102.055
106.4
110.964
115.762
120.81
126.126
131.73
137.642
143.887
150.489
157.478
164.885
172.743
181.09
189.966
199.414
209.48
220.209
231.643
243.816
256.741
270.386
284.652
299.238
313.712
326.568
336.964
8.13918
8.30013
7.95405
8.4872
9.05027
9.46027
9.88578
10.3504
10.8258
11.313
11.8193
12.3461
12.8938
13.4636
14.0568
14.6744
15.3176
15.9873
16.6847
17.4108
18.1665
18.9531
19.7716
20.6229
21.5082
22.4286
23.3854
24.3797
25.4129
26.4864
27.6013
28.7594
29.9619
31.2105
32.5068
33.8528
35.2501
36.701
38.2074
39.7718
41.3965
43.0843
44.8379
46.6604
48.5549
50.525
52.5744
54.7071
56.9272
59.2395
61.6487
64.1602
66.7794
69.5126
72.3661
75.3469
78.4623
81.7206
85.1302
88.7005
92.4416
96.3645
100.481
104.804
109.347
114.125
119.156
124.458
130.05
135.955
142.196
148.801
155.8
163.223
171.108
179.493
188.422
197.941
208.099
218.946
230.531
242.893
256.053
269.991
284.605
299.613
314.503
327.832
338.033
8.01656
8.24531
7.89656
8.36094
8.90101
9.29956
9.70436
10.1492
10.608
11.0782
11.5671
12.0763
12.6062
13.1578
13.7324
14.331
14.9545
15.6041
16.2808
16.9855
17.7194
18.4834
19.2787
20.1062
20.967
21.8623
22.7933
23.7612
24.7674
25.8132
26.8999
28.0291
29.2023
30.4211
31.6873
33.0025
34.3687
35.7881
37.2626
38.7948
40.3872
42.0422
43.7629
45.5522
47.4134
49.3499
51.3657
53.4644
55.6506
57.9287
60.3037
62.7809
65.3657
68.0644
70.8834
73.8297
76.9106
80.1344
83.5097
87.0459
90.7531
94.6425
98.7258
103.016
107.528
112.276
117.278
122.553
128.12
134.002
140.224
146.815
153.803
161.223
169.113
177.513
186.469
196.03
206.249
217.181
228.88
241.394
254.75
268.941
283.868
299.273
314.588
328.447
338.375
7.89793
8.18063
7.83648
8.23403
8.74438
9.12807
9.51077
9.93368
10.3736
10.8255
11.2955
11.7859
12.2969
12.8292
13.3841
13.9626
14.5655
15.194
15.8488
16.5311
17.242
17.9823
18.7532
19.5557
20.3909
21.2598
22.1637
23.1039
24.0816
25.0983
26.1553
27.2541
28.3963
29.5836
30.8175
32.1
33.4331
34.8187
36.2592
37.7567
39.314
40.9336
42.6184
44.3714
46.196
48.0956
50.0739
52.135
54.2831
56.5228
58.859
61.297
63.8423
66.5011
69.2799
72.1856
75.2256
78.4083
81.742
85.2364
88.9017
92.7489
96.7901
101.038
105.508
110.214
115.175
120.41
125.937
131.782
137.969
144.527
151.486
158.882
166.753
175.142
184.097
193.669
203.915
214.894
226.666
239.287
252.792
267.186
282.377
298.13
313.843
328.182
338.004
7.77184
8.09581
7.76538
8.10083
8.57704
8.94349
9.30352
9.70304
10.1225
10.5548
11.0049
11.4753
11.9662
12.4783
13.0126
13.57
14.1513
14.7576
15.3897
16.0486
16.7353
17.451
18.1964
18.9727
19.781
20.6224
21.4981
22.4092
23.3572
24.3433
25.3691
26.4361
27.5456
28.6996
29.8997
31.1477
32.4456
33.7955
35.1996
36.6603
38.1801
39.7617
41.408
43.122
44.907
46.7664
48.7041
50.7241
52.8305
55.028
57.3214
59.716
62.2174
64.8318
67.5655
70.4255
73.4192
76.5549
79.8412
83.2877
86.9045
90.7026
94.6941
98.8925
103.312
107.968
112.879
118.062
123.54
129.336
135.475
141.987
148.902
156.258
164.093
172.452
181.384
190.944
201.191
212.189
224.002
236.694
250.306
264.856
280.256
296.291
312.301
326.854
336.955
7.63307
7.98583
7.67719
7.95679
8.39616
8.74369
9.08102
9.45637
9.85417
10.2658
10.695
11.1446
11.6146
12.1055
12.6181
13.1535
13.7123
14.2955
14.9039
15.5384
16.2
16.8898
17.6088
18.3578
19.1381
19.9507
20.7968
21.6776
22.5944
23.5486
24.5417
25.5751
26.6505
27.7694
28.9337
30.1453
31.4061
32.7181
34.0837
35.5051
36.985
38.526
40.1309
41.8029
43.5452
45.3614
47.255
49.2302
51.291
53.4423
55.6887
58.0355
60.4884
63.0533
65.7366
68.5455
71.4872
74.5698
77.8024
81.1938
84.7547
88.4961
92.43
96.5695
100.929
105.525
110.375
115.497
120.913
126.646
132.723
139.172
146.027
153.323
161.101
169.407
178.292
187.812
198.029
209.01
220.825
233.542
247.211
261.861
277.406
293.65
309.823
324.599
334.705
7.47841
7.84785
7.56735
7.79814
8.19947
8.52685
8.84186
9.19277
9.56804
9.95821
10.3659
10.7938
11.242
11.7109
12.2012
12.7137
13.2491
13.8082
14.3919
15.001
15.6366
16.2995
16.9907
17.7114
18.4624
19.245
20.0602
20.9093
21.7936
22.7143
23.6731
24.6713
25.7107
26.7929
27.9196
29.0926
30.314
31.5859
32.9105
34.2901
35.7274
37.2248
38.7854
40.4122
42.1085
43.8776
45.7234
47.6497
49.6609
51.7614
53.9561
56.2501
58.649
61.1587
63.7858
66.5371
69.4199
72.4425
75.6133
78.9418
82.4381
86.1133
89.9794
94.0495
98.3379
102.861
107.636
112.681
118.018
123.672
129.667
136.034
142.804
150.015
157.708
165.929
174.731
184.17
194.311
205.223
216.981
229.656
243.307
257.971
273.565
289.912
306.165
321.26
330.746
7.30632
7.68096
7.43296
7.62207
7.98522
8.29165
8.58489
8.91152
9.26377
9.63198
10.0177
10.4232
10.849
11.2952
11.7623
12.2511
12.7622
13.2964
13.8546
14.4374
15.0458
15.6809
16.3434
17.0344
17.755
18.5063
19.2893
20.1053
20.9557
21.8415
22.7644
23.726
24.7276
25.7711
26.8582
27.9907
29.1707
30.4002
31.6814
33.0167
34.4086
35.8598
37.3731
38.9516
40.5985
42.3172
44.1113
45.985
47.9423
49.9876
52.1259
54.3621
56.702
59.1511
61.7162
64.4037
67.2212
70.1766
73.2783
76.5359
79.9593
83.5592
87.3478
91.338
95.5443
99.9821
104.669
109.623
114.867
120.423
126.318
132.581
139.245
146.345
153.925
162.029
170.71
180.028
190.045
200.835
212.472
225.032
238.575
253.147
268.659
284.939
301.15
316.351
324.823
7.11601
7.48523
7.27219
7.42648
7.7522
8.03715
8.30931
8.61211
8.94115
9.28707
9.65038
10.0332
10.436
10.8588
11.3021
11.7665
12.2527
12.7613
13.2929
13.8486
14.429
15.0352
15.668
16.3285
17.0175
17.7364
18.486
19.2677
20.0828
20.9324
21.8182
22.7414
23.7038
24.707
25.7528
26.843
27.9796
29.1647
30.4005
31.6893
33.0336
34.4361
35.8996
37.4272
39.0219
40.6873
42.4269
44.2446
46.1448
48.1315
50.2097
52.3844
54.6612
57.0456
59.5441
62.1634
64.9107
67.7939
70.8214
74.0023
77.3466
80.8653
84.5699
88.4731
92.5895
96.9345
101.525
106.38
111.52
116.968
122.752
128.898
135.44
142.415
149.863
157.831
166.37
175.539
185.404
196.034
207.505
219.896
233.263
247.654
262.959
279.067
294.897
309.939
316.569
6.90697
7.26146
7.08409
7.20996
7.49962
7.76277
8.01456
8.29416
8.6
8.92344
9.26412
9.62394
10.0033
10.4022
10.8211
11.2605
11.7209
12.203
12.7075
13.2351
13.7867
14.363
14.965
15.5937
16.2501
16.9353
17.6503
18.3964
19.1747
19.9866
20.8336
21.7169
22.6383
23.5994
24.602
25.6479
26.739
27.8774
29.0654
30.3051
31.5992
32.9502
34.361
35.8344
37.3737
38.9822
40.6635
42.4215
44.2603
46.1841
48.1977
50.306
52.5144
54.8287
57.255
59.7998
62.4704
65.2744
68.2202
71.3167
74.5738
78.002
81.613
85.4191
89.4344
93.6745
98.1554
102.896
107.918
113.242
118.895
124.905
131.304
138.128
145.417
153.217
161.579
170.56
180.225
190.644
201.891
214.042
227.151
241.268
256.27
272.085
287.22
301.981
306.349
6.67901
7.01084
6.86844
6.9716
7.22704
7.46829
7.70037
7.95751
8.24038
8.54126
8.85921
9.19573
9.5513
9.92592
10.3198
10.7335
11.1676
11.6225
12.099
12.5977
13.1194
13.665
14.2352
14.8312
15.4538
16.1041
16.7833
17.4924
18.2326
19.0052
19.8118
20.6536
21.5323
22.4495
23.4069
24.4064
25.4499
26.5394
27.6772
28.8654
30.1066
31.4033
32.7583
34.1744
35.655
37.2032
38.8225
40.5168
42.2901
44.1466
46.0909
48.1279
50.2628
52.5013
54.8494
57.3136
59.9009
62.6187
65.4752
68.4792
71.6401
74.9687
78.476
82.1742
86.0769
90.199
94.5568
99.1688
104.054
109.236
114.738
120.589
126.819
133.464
140.562
148.157
156.3
165.045
174.455
184.596
195.539
207.358
220.096
233.812
248.322
263.566
277.734
292.163
293.207
6.43211
6.73493
6.62554
6.71099
6.93438
7.15385
7.36684
7.60232
7.86255
8.14095
8.43612
8.74922
9.08073
9.43065
9.79915
10.1867
10.5938
11.0209
11.4686
11.9376
12.4286
12.9426
13.4801
14.0423
14.6301
15.2444
15.8865
16.5572
17.2581
17.9902
18.7549
19.5537
20.3882
21.2598
22.1703
23.1216
24.1154
25.154
26.2394
27.3738
28.5597
29.7995
31.0961
32.4523
33.8712
35.3559
36.9101
38.5373
40.2415
42.0269
43.898
45.8596
47.9167
50.075
52.3401
54.7185
57.217
59.8429
62.6041
65.5092
68.5673
71.789
75.1847
78.7664
82.5477
86.5424
90.7666
95.2381
99.9757
105.001
110.338
116.013
122.056
128.5
135.384
142.747
150.639
159.11
168.219
178.028
188.601
200
212.265
225.432
239.203
253.684
266.478
280.389
275.837
6.16623
6.43539
6.35612
6.42807
6.62182
6.81981
7.01427
7.22887
7.46689
7.72294
7.99533
8.28493
8.59218
8.91708
9.25979
9.6207
10.0002
10.3988
10.8171
11.2557
11.7153
12.1967
12.7006
13.2281
13.7798
14.3571
14.9609
15.5922
16.2523
16.9425
17.664
18.4181
19.2067
20.0309
20.8928
21.794
22.7363
23.7218
24.7525
25.8308
26.959
28.1394
29.375
30.6683
32.0225
33.4407
34.9264
36.483
38.1146
39.8251
41.6189
43.5007
45.4756
47.5488
49.726
52.0134
54.4176
56.9457
59.6055
62.4051
65.3536
68.4606
71.7368
75.1939
78.8445
82.7019
86.7821
91.1017
95.6789
100.534
105.691
111.174
117.011
123.235
129.881
136.987
144.597
152.76
161.528
170.956
181.1
192.016
203.7
216.163
229.013
242.569
253.477
266.58
255.047
5.88145
6.11402
6.06125
6.12313
6.28979
6.46672
6.64316
6.83764
7.05393
7.28779
7.53748
7.8035
8.08631
8.38593
8.70247
9.03625
9.38765
9.7572
10.1454
10.5528
10.9801
11.428
11.8974
12.3891
12.9039
13.443
14.0072
14.5978
15.2158
15.8625
16.5392
17.2473
17.9881
18.7633
19.5745
20.4236
21.3122
22.2425
23.2163
24.2359
25.3037
26.422
27.5935
28.8209
30.1072
31.4554
32.8689
34.3512
35.9059
37.5372
39.2492
41.0465
42.9339
44.9166
47.0002
49.1903
51.4937
53.9171
56.4679
59.154
61.984
64.9676
68.1146
71.436
74.9443
78.6523
82.5749
86.7278
91.1285
95.7963
100.753
106.021
111.629
117.605
123.982
130.795
138.086
145.896
154.271
163.261
172.905
183.234
194.196
205.819
217.557
229.979
238.426
250.515
231.008
5.5779
5.77265
5.74231
5.79677
5.93892
6.09544
6.25429
6.42936
6.62444
6.83635
7.06339
7.30586
7.56412
7.8382
8.1282
8.43446
8.7573
9.09717
9.45459
9.8301
10.2244
10.6381
11.072
11.5269
12.0039
12.5036
13.0273
13.5758
14.1505
14.7525
15.3829
16.0433
16.7349
17.4594
18.2184
19.0135
19.8464
20.7193
21.6341
22.5928
23.5978
24.6515
25.7563
26.915
28.1305
29.4056
30.7437
32.1482
33.6226
35.1709
36.7971
38.5057
40.3013
42.1889
44.1737
46.2616
48.4586
50.7715
53.2072
55.7731
58.4779
61.3304
64.34
67.5172
70.8736
74.4217
78.1753
82.1492
86.3595
90.8247
95.5641
100.6
105.957
111.661
117.741
124.229
131.16
138.572
146.502
154.984
164.034
173.66
183.785
194.448
204.857
215.962
221.342
232.373
200.591
5.25576
5.41316
5.40093
5.44987
5.57005
5.70693
5.8486
6.00489
6.17927
6.36947
6.57397
6.79289
7.02649
7.27483
7.53804
7.81639
8.1102
8.41988
8.74593
9.08891
9.44941
9.82806
10.2257
10.643
11.0809
11.5404
12.0223
12.5278
13.0579
13.6137
14.1966
14.8078
15.4487
16.1208
16.8257
17.5651
18.3406
19.1542
20.0077
20.9034
21.8434
22.83
23.8656
24.953
26.0948
27.294
28.5536
29.8771
31.2679
32.7296
34.2664
35.8824
37.5821
39.3703
41.252
43.2329
45.3186
47.5156
49.8307
52.2708
54.8442
57.559
60.4241
63.45
66.6471
70.027
73.6027
77.3878
81.3973
85.6482
90.1585
94.9478
100.037
105.451
111.216
117.357
123.903
130.882
138.318
146.227
154.608
163.464
172.652
182.224
191.063
200.651
202.256
212.117
164.816
4.91539
5.03739
5.03892
5.08355
5.1842
5.30232
5.4272
5.56525
5.71938
5.88813
6.0702
6.26554
6.47437
6.69677
6.93288
7.18292
7.44724
7.72617
8.02026
8.33002
8.65597
8.99879
9.35927
9.73804
10.136
10.554
10.9931
11.4541
11.9383
12.4467
12.9805
13.5409
14.1295
14.7476
15.3965
16.0782
16.7942
17.5463
18.3365
19.1667
20.039
20.9558
21.9194
22.9324
23.9974
25.1173
26.295
27.5337
28.8368
30.2079
31.6508
33.1696
34.7684
36.4519
38.225
40.0929
42.0611
44.1356
46.3228
48.6295
51.063
53.6315
56.3432
59.2076
62.2342
65.4345
68.8197
72.4025
76.1967
80.217
84.48
89.0033
93.8051
98.9056
104.327
110.087
116.209
122.707
129.593
136.873
144.523
152.522
160.644
168.97
175.956
183.789
180.771
189.341
126.764
4.55724
4.64722
4.6583
4.6992
4.78258
4.88292
4.99136
5.11163
5.24599
5.39352
5.55324
5.72502
5.90898
6.10526
6.31399
6.53538
6.76976
7.0175
7.27904
7.55495
7.84567
8.1519
8.47437
8.81371
9.17076
9.54638
9.9415
10.3571
10.7941
11.2538
11.7371
12.2454
12.7801
13.3425
13.9341
14.5562
15.2108
15.8994
16.624
17.3866
18.1891
19.0337
19.9228
20.8587
21.8441
22.8817
23.9743
25.125
26.3371
27.6139
28.9591
30.3766
31.8703
33.4447
35.1044
36.8543
38.6998
40.6461
42.6996
44.8664
47.1535
49.5682
52.1183
54.8123
57.659
60.6687
63.8519
67.2199
70.7847
74.5596
78.559
82.7973
87.2889
92.0496
97.0956
102.439
108.094
114.069
120.364
126.967
133.824
140.892
147.846
154.827
159.74
165.759
157.34
164.919
79.773
4.18209
4.24448
4.26125
4.29845
4.36657
4.45017
4.54251
4.64538
4.76032
4.88687
5.02432
5.1725
5.3315
5.50146
5.68255
5.87496
6.07899
6.29503
6.52349
6.76491
7.01976
7.28868
7.5723
7.87137
8.18659
8.51882
8.86895
9.2379
9.62663
10.0363
10.468
10.9228
11.4021
11.9072
12.4395
13.0005
13.5918
14.2152
14.8722
15.565
16.2954
17.0655
17.8776
18.7339
19.6371
20.5896
21.5941
22.6538
23.7715
24.9507
26.1946
27.5072
28.892
30.3533
31.8954
33.5228
35.2406
37.0541
38.9687
40.9903
43.1252
45.3801
47.7625
50.2797
52.94
55.7521
58.7254
61.8694
65.1948
68.7122
72.4332
76.3695
80.5317
84.9315
89.5799
94.4841
99.6488
105.072
110.735
116.611
122.607
128.665
134.337
139.861
142.446
146.538
131.855
138.548
27.6561
3.79098
3.83102
3.85005
3.88313
3.93769
4.00558
4.08214
4.16788
4.2637
4.36948
4.4847
4.60922
4.74314
4.88658
5.03972
5.20276
5.37601
5.55986
5.75468
5.96097
6.17923
6.41006
6.65409
6.91199
7.18445
7.47228
7.77633
8.0975
8.43672
8.79504
9.17353
9.57336
9.99569
10.4419
10.9133
11.4112
11.9373
12.4932
13.0805
13.7012
14.357
15.05
15.7823
16.5562
17.3739
18.2381
19.1513
20.1162
21.1358
22.2133
23.3518
24.5548
25.8259
27.169
28.588
30.0874
31.6717
33.3457
35.1144
36.9834
38.9584
41.0454
43.2506
45.5812
48.0439
50.6463
53.3966
56.3028
59.3733
62.6158
66.0403
69.6552
73.4676
77.4845
81.7108
86.1466
90.786
95.6144
100.596
105.684
110.744
115.699
119.952
123.875
123.806
125.808
103.835
109.782
-24.8189
3.38532
3.40868
3.42712
3.45531
3.4977
3.55086
3.61195
3.68075
3.7577
3.84282
3.93583
4.03664
4.14532
4.26203
4.38695
4.52029
4.66237
4.81354
4.9742
5.14481
5.32588
5.51793
5.72154
5.93742
6.16625
6.40874
6.66572
6.93808
7.22666
7.53248
7.85654
8.19996
8.56396
8.94966
9.35853
9.79177
10.2508
10.7374
11.253
11.7994
12.3785
12.9921
13.6422
14.331
15.0607
15.8337
16.6524
17.5195
18.4378
19.4101
20.4395
21.5291
22.6825
23.9031
25.1947
26.5612
28.0068
29.5359
31.1531
32.863
34.6709
36.5822
38.6023
40.7372
42.9925
45.3749
47.8911
50.5473
53.3503
56.3062
59.4215
62.701
66.1489
69.7666
73.552
77.4979
81.5883
85.796
90.067
94.3338
98.4183
102.233
104.997
107.294
104.372
104.439
74.4056
80.4579
-89.537
2.96703
2.97929
2.99488
3.01722
3.04845
3.08776
3.13364
3.1856
3.24382
3.30838
3.37916
3.45614
3.53942
3.62916
3.72555
3.82884
3.93934
4.05737
4.18333
4.31766
4.46085
4.61343
4.77595
4.94902
5.13329
5.32953
5.53845
5.76085
5.99765
6.24976
6.51817
6.80389
7.10808
7.43184
7.77643
8.14322
8.53359
8.94891
9.39087
9.86103
10.3611
10.8929
11.4585
12.0597
12.6987
13.3777
14.0991
14.8653
15.6789
16.5425
17.459
18.4314
19.4629
20.5566
21.7161
22.9448
24.2467
25.6253
27.0848
28.6297
30.2644
31.9933
33.8213
35.7533
37.794
39.9487
42.2226
44.6202
47.146
49.8037
52.5968
55.5264
58.5926
61.7909
65.1131
68.5435
72.055
75.6068
79.1242
82.5198
85.5627
88.1611
89.3167
89.8847
83.82
81.8545
42.87
48.9281
-152.053
2.53855
2.5447
2.55577
2.57123
2.59197
2.61814
2.64901
2.68417
2.72368
2.76767
2.81615
2.86915
2.92681
2.98931
3.05686
3.12971
3.20816
3.29257
3.3833
3.48077
3.58543
3.69779
3.8184
3.94783
4.0867
4.2357
4.3955
4.56693
4.75077
4.94789
5.15921
5.38575
5.62856
5.8888
6.16747
6.46593
6.78544
7.12751
7.49344
7.88492
8.30352
8.75095
9.22905
9.73961
10.2847
10.8664
11.4868
12.1483
12.8532
13.6039
14.4031
15.2536
16.1581
17.1197
18.1414
19.2265
20.3781
21.5998
22.8951
24.2677
25.7214
27.26
28.8873
30.6071
32.4232
34.3395
36.3591
38.4849
40.7194
43.064
45.518
48.0795
50.7437
53.5004
56.3342
59.2206
62.1202
64.9778
67.6962
70.1672
72.0991
73.4072
72.8276
71.586
62.0583
58.1051
9.23964
15.8718
-214.343
2.10294
2.10674
2.11218
2.11987
2.13047
2.14396
2.15992
2.17822
2.19898
2.22233
2.24837
2.27722
2.30901
2.34397
2.38233
2.42435
2.47034
2.52063
2.57559
2.63561
2.70112
2.77261
2.85057
2.93555
3.02812
3.12893
3.23867
3.35801
3.48774
3.6287
3.78174
3.94775
4.12779
4.32279
4.53397
4.76239
5.00937
5.2762
5.56422
5.87492
6.20983
6.57052
6.95871
7.37612
7.82461
8.30613
8.82267
9.37633
9.96932
10.6039
11.2825
12.0075
12.7816
13.6073
14.4874
15.4247
16.4221
17.4825
18.609
19.8046
21.0722
22.415
23.8359
25.3377
26.923
28.5941
30.3526
32.1997
34.1353
36.1584
38.2654
40.4503
42.7035
45.0097
47.3456
49.6779
51.9555
54.1092
56.0181
57.5567
58.3665
58.3909
56.0529
53.0838
39.9858
34.4862
-24.6822
-16.1456
-293.891
1.66373
1.66708
1.66623
1.6656
1.66618
1.66714
1.66816
1.66946
1.6713
1.67385
1.67723
1.68163
1.68726
1.69434
1.70312
1.71389
1.72695
1.7426
1.7612
1.78315
1.80885
1.83874
1.87327
1.91298
1.9584
2.01009
2.06868
2.13484
2.2093
2.29284
2.38622
2.49031
2.60598
2.73433
2.87625
3.03296
3.20549
3.39515
3.60312
3.8309
4.0798
4.35134
4.64709
4.96866
5.31776
5.69617
6.10573
6.54837
7.02607
7.54088
8.09494
8.69051
9.3298
10.0151
10.7488
11.5334
12.3711
13.2646
14.2161
15.2282
16.303
17.4428
18.6495
19.9249
21.2704
22.6866
24.1735
25.7304
27.3548
29.0425
30.7869
32.5779
34.4005
36.2332
38.0456
39.7943
41.4151
42.8237
43.873
44.4201
44.0286
42.6815
38.4367
33.6145
16.6083
9.32512
-60.8744
-51.4606
-354.168
1.22478
1.22753
1.22012
1.21105
1.20148
1.18977
1.17566
1.15976
1.14248
1.12397
1.10443
1.08408
1.0632
1.04203
1.02084
0.99992
0.979557
0.960072
0.941799
0.9251
0.910352
0.897936
0.888329
0.881941
0.879315
0.880969
0.887469
0.899433
0.917525
0.942386
0.974846
1.01567
1.06569
1.12572
1.19687
1.27999
1.3763
1.48676
1.61275
1.75534
1.91591
2.09585
2.29658
2.51958
2.7664
3.03868
3.33808
3.6663
4.02515
4.4165
4.84216
5.3041
5.80426
6.34462
6.92719
7.55393
8.2268
8.94763
9.71838
10.5406
11.4161
12.3459
13.3311
14.3723
15.4694
16.6218
17.8277
19.084
20.3861
21.7266
23.0955
24.4785
25.8554
27.1984
28.4689
29.6138
30.5555
31.1947
31.3562
30.883
29.2504
26.5079
20.2803
13.643
-7.47607
-16.2235
-97.7049
-86.6154
-417.486
0.789668
0.789934
0.776177
0.758864
0.7388
0.713971
0.684429
0.651081
0.614375
0.574493
0.531687
0.486266
0.438524
0.388727
0.337167
0.284125
0.229899
0.174798
0.119132
0.0632104
0.00739512
-0.047918
-0.102379
-0.155539
-0.206984
-0.256221
-0.302702
-0.345905
-0.385253
-0.420058
-0.449681
-0.473431
-0.490507
-0.500021
-0.50125
-0.493186
-0.474879
-0.445231
-0.403264
-0.347756
-0.277519
-0.191329
-0.0878791
0.0341964
0.176284
0.339844
0.526359
0.737388
0.974486
1.23926
1.53336
1.85838
2.21602
2.60791
3.03561
3.5007
4.00463
4.54881
5.13445
5.76263
6.43396
7.14902
7.90775
8.7096
9.55331
10.4364
11.3556
12.3055
13.2791
14.2665
15.2538
16.2221
17.1469
17.9942
18.7169
19.2525
19.51
19.3766
18.648
17.1592
14.2876
10.1829
1.97352
-6.33451
-31.5808
-41.294
-133.848
-120.201
-494.884
0.361556
0.356224
0.336845
0.311603
0.28039
0.241785
0.196415
0.145263
0.088742
0.0270894
-0.0393624
-0.110259
-0.185276
-0.264114
-0.346477
-0.432075
-0.520634
-0.611869
-0.705491
-0.801177
-0.898631
-0.997561
-1.09758
-1.19833
-1.2994
-1.40039
-1.50083
-1.60028
-1.6981
-1.79379
-1.88678
-1.97637
-2.06188
-2.14269
-2.21786
-2.28659
-2.34806
-2.40129
-2.44528
-2.47906
-2.50154
-2.51155
-2.50798
-2.48961
-2.45519
-2.40343
-2.33302
-2.24262
-2.13087
-1.99645
-1.83795
-1.65401
-1.44338
-1.20472
-0.936857
-0.638656
-0.309153
0.0524408
0.446748
0.874031
1.33433
1.82713
2.35136
2.90522
3.48595
4.08974
4.71128
5.34309
5.97538
6.595
7.18467
7.72156
8.17463
8.50369
8.65315
8.55085
8.09115
7.14689
5.48169
2.92487
-1.25833
-6.79482
-17.1199
-27.1841
-56.8168
-67.7334
-171.555
-156.729
-545.017
-0.056881
-0.0716144
-0.0953521
-0.128179
-0.171474
-0.224697
-0.286379
-0.35574
-0.432521
-0.516413
-0.606948
-0.703726
-0.80642
-0.914716
-1.0283
-1.1469
-1.27024
-1.39807
-1.5301
-1.6661
-1.8058
-1.94887
-2.09506
-2.24406
-2.39553
-2.54908
-2.7043
-2.86078
-3.01809
-3.17576
-3.33315
-3.48984
-3.64517
-3.79845
-3.94904
-4.09614
-4.23899
-4.37683
-4.50878
-4.63378
-4.75101
-4.85947
-4.95808
-5.04583
-5.12159
-5.18429
-5.23282
-5.266
-5.28276
-5.28189
-5.26241
-5.22316
-5.1632
-5.08164
-4.97762
-4.85057
-4.69995
-4.52562
-4.32753
-4.10605
-3.86216
-3.59726
-3.31337
-3.01371
-2.7021
-2.38428
-2.06744
-1.76128
-1.47814
-1.23414
-1.0504
-0.954518
-0.98202
-1.18063
-1.61366
-2.36344
-3.55029
-5.31376
-7.92432
-11.5501
-17.0529
-23.991
-36.4471
-48.1227
-82.1618
-93.8413
-208.267
-191.832
-600.859
-0.463326
-0.491515
-0.517827
-0.558043
-0.614678
-0.683483
-0.761996
-0.85005
-0.947652
-1.05429
-1.16937
-1.29248
-1.4233
-1.56147
-1.70671
-1.85874
-2.01729
-2.18215
-2.35309
-2.52988
-2.7123
-2.90015
-3.09317
-3.29106
-3.49356
-3.7004
-3.9112
-4.12566
-4.34339
-4.56392
-4.7869
-5.01183
-5.23816
-5.46527
-5.69271
-5.91977
-6.14559
-6.36975
-6.59128
-6.80945
-7.02346
-7.23243
-7.43544
-7.63167
-7.82012
-7.99982
-8.16995
-8.32948
-8.47763
-8.6134
-8.73605
-8.84482
-8.93908
-9.01811
-9.08171
-9.1296
-9.16192
-9.17885
-9.18124
-9.17011
-9.14729
-9.11496
-9.07634
-9.03577
-8.99875
-8.97237
-8.96586
-8.99119
-9.06294
-9.20065
-9.42898
-9.7799
-10.295
-11.0273
-12.0489
-13.4513
-15.3697
-17.9545
-21.5119
-26.1986
-33.0174
-41.3152
-55.8925
-69.0366
-107.395
-119.552
-243.68
-225.912
-659.102
-0.855902
-0.901392
-0.928047
-0.975712
-1.04721
-1.13262
-1.22854
-1.33588
-1.45491
-1.58488
-1.72503
-1.87496
-2.03434
-2.20285
-2.38016
-2.56604
-2.76025
-2.96261
-3.17294
-3.39102
-3.61672
-3.84988
-4.09026
-4.33772
-4.59199
-4.85288
-5.12011
-5.39342
-5.67253
-5.95707
-6.24663
-6.54098
-6.83963
-7.14208
-7.44781
-7.75626
-8.06694
-8.37922
-8.69244
-9.00587
-9.31887
-9.63071
-9.94063
-10.2479
-10.5519
-10.8516
-11.1464
-11.4356
-11.7187
-11.9948
-12.2634
-12.5242
-12.7768
-13.021
-13.2569
-13.4849
-13.7053
-13.9192
-14.1279
-14.3333
-14.538
-14.7452
-14.9593
-15.1858
-15.4316
-15.7058
-16.0192
-16.3861
-16.8242
-17.3558
-18.0099
-18.8222
-19.8397
-21.1229
-22.7522
-24.8285
-27.5021
-30.9338
-35.4691
-41.2459
-49.4259
-59.107
-75.8813
-90.496
-133.236
-146.034
-279.229
-261.525
-692.263
-1.23296
-1.29907
-1.32347
-1.37899
-1.46712
-1.57017
-1.68412
-1.81141
-1.95257
-2.10645
-2.27218
-2.44942
-2.63784
-2.8371
-3.04691
-3.26701
-3.49728
-3.73754
-3.98762
-4.24742
-4.51686
-4.79579
-5.0841
-5.38164
-5.6883
-6.00389
-6.32823
-6.66114
-7.00241
-7.35176
-7.70907
-8.07396
-8.44601
-8.82485
-9.21024
-9.60171
-9.99857
-10.4005
-10.807
-11.2174
-11.6313
-12.048
-12.467
-12.8876
-13.3094
-13.7316
-14.1537
-14.5753
-14.996
-15.4153
-15.833
-16.249
-16.6633
-17.0762
-17.488
-17.8996
-18.312
-18.7267
-19.1459
-19.5721
-20.0086
-20.4599
-20.9313
-21.4296
-21.9634
-22.5429
-23.1813
-23.8953
-24.7046
-25.6353
-26.7193
-27.9974
-29.5224
-31.3603
-33.5998
-36.3507
-39.7787
-44.0515
-49.5563
-56.3997
-65.9205
-76.9083
-95.8358
-111.707
-158.639
-171.671
-312.484
-295.118
-733.474
-1.59311
-1.68232
-1.70166
-1.76588
-1.87259
-1.99434
-2.12696
-2.27495
-2.43897
-2.6174
-2.80927
-3.0143
-3.23221
-3.46266
-3.70535
-3.96009
-4.22677
-4.5053
-4.79552
-5.09747
-5.41107
-5.73621
-6.0729
-6.42105
-6.78061
-7.15151
-7.53358
-7.92684
-8.33109
-8.74625
-9.17206
-9.60842
-10.055
-10.5117
-10.9779
-11.4535
-11.9382
-12.4314
-12.9329
-13.4422
-13.9589
-14.4825
-15.0127
-15.5489
-16.0907
-16.6379
-17.1899
-17.7466
-18.3078
-18.8733
-19.4432
-20.0176
-20.597
-21.1819
-21.7732
-22.372
-22.9802
-23.5997
-24.2335
-24.8845
-25.5573
-26.257
-26.9904
-27.7652
-28.5914
-29.4811
-30.4495
-31.515
-32.7008
-34.0357
-35.5547
-37.3038
-39.3402
-41.7362
-44.5889
-48.016
-52.1983
-57.3081
-63.7771
-71.6675
-82.5145
-94.7476
-115.788
-132.771
-183.66
-196.846
-343.872
-328.026
-770.5
-1.93513
-2.04887
-2.06028
-2.13457
-2.26198
-2.40339
-2.55539
-2.72492
-2.91259
-3.11621
-3.33477
-3.56813
-3.81599
-4.07803
-4.35398
-4.64372
-4.94718
-5.26432
-5.5951
-5.93952
-6.29766
-6.66946
-7.05497
-7.45424
-7.86723
-8.29398
-8.73452
-9.18882
-9.65685
-10.1387
-10.634
-11.1429
-11.6652
-12.2007
-12.7492
-13.3106
-13.8846
-14.4708
-15.0691
-15.6791
-16.3007
-16.9334
-17.5771
-18.2313
-18.896
-19.5708
-20.2557
-20.9505
-21.6555
-22.3706
-23.0962
-23.8328
-24.5812
-25.3423
-26.1174
-26.9081
-27.7168
-28.5462
-29.3995
-30.2809
-31.1956
-32.1499
-33.1513
-34.2092
-35.3349
-36.5424
-37.8485
-39.2741
-40.8448
-42.5929
-44.5568
-46.7869
-49.3457
-52.3118
-55.7901
-59.906
-64.8564
-70.8155
-78.2642
-87.2084
-99.4013
-112.866
-136.036
-154.099
-208.804
-222.388
-374.339
-361.795
-783.261
-2.25793
-2.39636
-2.3971
-2.48339
-2.63364
-2.79564
-2.96777
-3.15975
-3.37188
-3.60133
-3.84715
-4.1093
-4.38754
-4.68157
-4.99112
-5.31618
-5.65669
-6.01268
-6.38427
-6.77148
-7.17443
-7.59317
-8.0279
-8.47862
-8.94547
-9.42857
-9.92804
-10.444
-10.9765
-11.5256
-12.0913
-12.6736
-13.2725
-13.888
-14.5199
-15.1683
-15.8329
-16.5135
-17.2101
-17.9226
-18.6508
-19.3944
-20.1536
-20.928
-21.7176
-22.5225
-23.3426
-24.1782
-25.0296
-25.8971
-26.7813
-27.6831
-28.6035
-29.5439
-30.5061
-31.4921
-32.5048
-33.5475
-34.624
-35.7396
-36.9001
-38.1127
-39.3859
-40.7307
-42.1596
-43.6884
-45.3362
-47.1252
-49.0844
-51.2486
-53.6599
-56.3727
-59.4542
-62.9892
-67.0903
-71.8888
-77.5982
-84.3899
-92.7979
-102.753
-116.251
-130.841
-156.051
-174.964
-233.123
-246.874
-401.715
-394.665
-802.957
-2.56041
-2.7224
-2.71006
-2.81086
-2.98613
-3.16953
-3.36261
-3.57803
-3.81542
-4.07134
-4.34496
-4.63639
-4.94542
-5.27173
-5.61517
-5.97578
-6.35359
-6.74874
-7.16131
-7.5915
-8.03951
-8.50547
-8.98964
-9.49217
-10.0133
-10.5531
-11.112
-11.6901
-12.2876
-12.9047
-13.5415
-14.198
-14.8745
-15.571
-16.2874
-17.0238
-17.7802
-18.5567
-19.3531
-20.1697
-21.0061
-21.8626
-22.7391
-23.6356
-24.5524
-25.4895
-26.4472
-27.426
-28.4263
-29.4487
-30.4942
-31.5639
-32.6592
-33.7819
-34.934
-36.1185
-37.3382
-38.5972
-39.9003
-41.253
-42.6623
-44.1363
-45.6846
-47.3193
-49.0545
-50.9072
-52.8988
-55.0534
-57.4022
-59.9832
-62.8422
-66.0371
-69.64
-73.7401
-78.4579
-83.9298
-90.3852
-97.9882
-107.331
-118.249
-133.008
-148.617
-175.762
-195.338
-256.538
-270.389
-426.206
-423.747
-829.136
-2.84159
-3.02456
-2.99728
-3.11575
-3.31812
-3.52368
-3.73862
-3.97853
-4.24202
-4.52504
-4.82699
-5.14816
-5.48833
-5.84725
-6.22485
-6.62123
-7.03653
-7.47101
-7.92478
-8.39818
-8.89146
-9.40485
-9.93871
-10.4933
-11.0689
-11.6659
-12.2846
-12.9255
-13.5886
-14.2743
-14.9829
-15.7146
-16.4696
-17.2481
-18.0501