/*--------------------------------*- C++ -*----------------------------------*\
  =========                 |
  \\      /  F ield         | OpenFOAM: The Open Source CFD Toolbox
   \\    /   O peration     | Website:  https://openfoam.org
    \\  /    A nd           | Version:  11
     \\/     M anipulation  |
\*---------------------------------------------------------------------------*/
FoamFile
{
    format      ascii;
    class       volScalarField;
    location    "150";
    object      p;
}
// * * * * * * * * * * * * * * * * * * * * * * * * * * * * * * * * * * * * * //

dimensions      [0 2 -2 0 0 0 0];

internalField   nonuniform List<scalar> 
31595
(
0.181802
0.0976925
0.145603
0.139381
0.161487
0.164961
0.182159
0.190584
0.204903
0.215813
0.229205
0.241329
0.254562
0.26742
0.280814
0.294176
0.307833
0.321568
0.335485
0.349492
0.363606
0.377776
0.39198
0.406172
0.420318
0.434369
0.448282
0.46201
0.475508
0.488725
0.501619
0.514144
0.526261
0.537932
0.549131
0.559834
0.570034
0.57973
0.588935
0.597674
0.605992
0.613941
0.621596
0.629047
0.636399
0.643766
0.651292
0.659121
0.667422
0.676374
0.686164
0.696994
0.709071
0.722617
0.737852
0.75501
0.774322
0.796032
0.820374
0.847591
0.877919
0.911591
0.948835
0.989867
1.03488
1.08406
1.13754
1.19544
1.25781
1.32463
1.39575
1.47096
1.54977
1.63165
1.71524
1.79995
1.88182
1.96236
2.02764
2.09359
2.1061
2.14836
2.01523
2.0413
1.53604
1.57303
0.235535
0.217921
-3.07815
0.146189
0.117048
0.131058
0.144872
0.157284
0.167115
0.179918
0.191129
0.203396
0.215288
0.227733
0.240124
0.25286
0.265706
0.278806
0.292065
0.30553
0.319155
0.332946
0.346876
0.360933
0.375091
0.389323
0.403598
0.417885
0.432148
0.446351
0.460456
0.474429
0.488236
0.501842
0.515218
0.528334
0.541171
0.553712
0.565951
0.57789
0.589541
0.600929
0.61209
0.623078
0.633957
0.644808
0.655728
0.666826
0.678227
0.690075
0.702523
0.715742
0.729914
0.745233
0.761905
0.780146
0.800182
0.822246
0.846581
0.873432
0.903054
0.935702
0.971637
1.01112
1.05441
1.10176
1.15342
1.20962
1.2706
1.33653
1.40758
1.48387
1.56542
1.65219
1.74404
1.84055
1.94128
2.04505
2.15119
2.25621
2.36097
2.45299
2.54574
2.58889
2.66013
2.55847
2.61916
2.12734
2.22292
0.835443
0.901626
-2.41613
0.133243
0.122551
0.127436
0.145047
0.156411
0.16722
0.178984
0.190664
0.202361
0.214266
0.226356
0.238631
0.251107
0.263794
0.276692
0.2898
0.303111
0.316619
0.330309
0.344172
0.358193
0.372355
0.386638
0.401019
0.415473
0.429972
0.444489
0.458999
0.473474
0.487892
0.502229
0.51647
0.530599
0.544607
0.558491
0.572257
0.585917
0.599497
0.613032
0.62657
0.640173
0.653914
0.667882
0.682182
0.696929
0.712256
0.728311
0.745253
0.763257
0.782511
0.803216
0.825585
0.84984
0.876217
0.904958
0.936319
0.97056
1.00795
1.04876
1.09328
1.14179
1.19457
1.25192
1.31412
1.38145
1.45416
1.53251
1.61671
1.70695
1.80333
1.90589
2.01457
2.12909
2.24907
2.37354
2.5018
2.63084
2.76095
2.88124
3.00242
3.07933
3.1809
3.11829
3.21156
2.75047
2.89577
1.47415
1.57127
-1.94441
0.131553
0.125088
0.127379
0.144426
0.156364
0.166871
0.178317
0.189838
0.201308
0.212973
0.224837
0.236896
0.249164
0.261657
0.274377
0.287327
0.300503
0.313899
0.327508
0.34132
0.355326
0.369516
0.383875
0.398387
0.413035
0.427799
0.442661
0.457602
0.472607
0.48766
0.502751
0.517875
0.533028
0.548212
0.563437
0.57872
0.594085
0.609565
0.62521
0.641075
0.657231
0.673762
0.690764
0.708347
0.726637
0.745773
0.765907
0.787207
0.809852
0.834038
0.859973
0.887876
0.917981
0.950531
0.985783
1.024
1.06546
1.11046
1.15927
1.21222
1.26961
1.33175
1.39897
1.47159
1.54993
1.63431
1.72503
1.82236
1.92656
2.03783
2.1563
2.282
2.41477
2.55436
2.70001
2.85105
3.00493
3.16153
3.31142
3.46286
3.57597
3.71014
3.69226
3.8184
3.40217
3.59216
2.14742
2.25875
-1.56255
0.132238
0.128193
0.128289
0.144265
0.156439
0.166597
0.177634
0.188905
0.200124
0.211521
0.22314
0.234972
0.247026
0.259321
0.271863
0.284656
0.297701
0.310993
0.324529
0.338303
0.352308
0.366539
0.380989
0.395649
0.410508
0.425554
0.440776
0.456164
0.471711
0.487411
0.503264
0.519274
0.53545
0.551804
0.568355
0.585131
0.60217
0.619514
0.637219
0.655353
0.673996
0.693237
0.713184
0.733954
0.755679
0.778505
0.802592
0.828114
0.855259
0.884229
0.91524
0.94852
0.98431
1.02287
1.06446
1.10937
1.15789
1.21032
1.26698
1.3282
1.39432
1.46567
1.54263
1.62555
1.71481
1.81076
1.91378
2.02421
2.14237
2.26857
2.40302
2.54587
2.69713
2.85664
3.02388
3.19828
3.37769
3.56176
3.74239
3.9257
4.07687
4.24593
4.27656
4.43682
4.0753
4.30577
2.85064
3.09355
-0.764837
0.133946
0.13165
0.129815
0.144437
0.156576
0.166347
0.176903
0.18785
0.198786
0.20989
0.221243
0.232833
0.244665
0.256757
0.269119
0.281755
0.29467
0.307864
0.321333
0.335076
0.34909
0.363374
0.377926
0.392744
0.407824
0.423162
0.438753
0.454596
0.470692
0.487044
0.503659
0.520553
0.537742
0.555249
0.573105
0.591347
0.610021
0.629183
0.648895
0.669235
0.69029
0.71216
0.734958
0.758811
0.783858
0.810252
0.838162
0.867768
0.899266
0.932866
0.968792
1.00728
1.04859
1.09298
1.14074
1.19216
1.24756
1.30725
1.37157
1.44089
1.51556
1.59596
1.6825
1.77558
1.8756
1.98301
2.09822
2.22166
2.35373
2.49482
2.64527
2.80536
2.97524
3.15492
3.34406
3.54227
3.74781
3.96023
4.17262
4.3894
4.58037
4.78697
4.86954
5.06685
4.76928
5.0373
3.60001
4.01669
0.0722551
0.13566
0.135051
0.131639
0.144786
0.156684
0.166057
0.176085
0.18665
0.197269
0.208061
0.219128
0.230462
0.242062
0.253945
0.266122
0.2786
0.291384
0.304479
0.317884
0.331599
0.345627
0.359969
0.374628
0.389609
0.404914
0.420546
0.436508
0.452806
0.469448
0.486446
0.503815
0.521578
0.539762
0.558398
0.577528
0.597198
0.617463
0.638387
0.660043
0.682517
0.705904
0.730311
0.755862
0.782688
0.810938
0.840772
0.872367
0.905911
0.941607
0.979675
1.02035
1.06387
1.11052
1.16056
1.21429
1.27203
1.3341
1.40084
1.47263
1.54983
1.63285
1.7221
1.81801
1.92104
2.03166
2.15032
2.27755
2.41384
2.55968
2.71555
2.88193
3.05921
3.24772
3.44765
3.65889
3.88124
4.1134
4.35493
4.60003
4.85186
5.08439
5.3316
5.46968
5.70888
5.48488
5.79277
4.40463
4.93329
0.621862
0.137128
0.138105
0.133531
0.145162
0.156673
0.165644
0.175126
0.185266
0.195541
0.206004
0.216769
0.227834
0.239194
0.250861
0.262847
0.275163
0.287814
0.300807
0.314146
0.327834
0.341875
0.356275
0.371042
0.386184
0.401712
0.417635
0.433964
0.45071
0.467889
0.485521
0.503627
0.522238
0.541391
0.561125
0.58149
0.602541
0.624344
0.646969
0.6705
0.69503
0.720661
0.747511
0.775708
0.805393
0.836722
0.869863
0.905
0.942329
0.982065
1.02443
1.06968
1.11806
1.16984
1.22534
1.28485
1.34869
1.41723
1.49081
1.56983
1.65471
1.74585
1.84372
1.94877
2.06153
2.1825
2.31221
2.45124
2.60018
2.75959
2.93009
3.11225
3.30662
3.5137
3.73388
3.96731
4.21403
4.47316
4.74439
5.023
5.31122
5.58688
5.87748
6.07429
6.36007
6.21826
6.56978
5.26394
5.86018
1.09693
0.13818
0.140615
0.135286
0.145439
0.156456
0.16503
0.173971
0.183657
0.193568
0.203692
0.214142
0.224927
0.236036
0.24748
0.259271
0.271418
0.283931
0.296819
0.310089
0.323745
0.337797
0.352252
0.367123
0.382423
0.398168
0.414373
0.431057
0.448239
0.465938
0.484184
0.503006
0.522439
0.542527
0.563321
0.584878
0.60726
0.630541
0.654802
0.680134
0.706637
0.734423
0.763616
0.794351
0.826778
0.861061
0.897374
0.935911
0.976876
1.02049
1.06699
1.11664
1.16969
1.22644
1.28719
1.35227
1.42203
1.49682
1.57704
1.66309
1.75541
1.85446
1.96073
2.07472
2.19698
2.3281
2.46865
2.61929
2.78067
2.95349
3.13845
3.33627
3.54763
3.77323
4.01366
4.26935
4.5406
4.82698
5.1284
5.44114
5.76684
6.0868
6.42299
6.68077
7.01663
6.96298
7.35908
6.15591
6.80946
2.14518
0.138759
0.142474
0.136749
0.145512
0.155959
0.164142
0.172559
0.181779
0.191312
0.201089
0.211216
0.221711
0.232562
0.243776
0.255363
0.267336
0.279705
0.292481
0.305674
0.319292
0.333347
0.34785
0.362817
0.378264
0.394214
0.410688
0.427711
0.445307
0.463506
0.48234
0.501846
0.522068
0.543054
0.564862
0.587558
0.611215
0.635911
0.661736
0.688789
0.717177
0.747021
0.778451
0.811612
0.84666
0.883765
0.923113
0.964902
1.00935
1.05668
1.10714
1.161
1.21854
1.28006
1.34587
1.41632
1.49177
1.5726
1.65922
1.75207
1.85161
1.95833
2.07276
2.19544
2.32697
2.46798
2.61913
2.78113
2.95473
3.14073
3.33992
3.55317
3.78135
4.02532
4.2859
4.5638
4.85962
5.17339
5.50533
5.85271
6.21681
6.58217
6.96616
7.28723
7.6776
7.71839
8.16341
7.07912
7.7947
3.30101
0.138832
0.143621
0.137804
0.145295
0.155118
0.162919
0.170839
0.179589
0.188735
0.198161
0.207959
0.218157
0.228742
0.239718
0.251095
0.262885
0.275102
0.287756
0.300863
0.314432
0.328479
0.343017
0.358065
0.373646
0.389785
0.406508
0.423846
0.441833
0.460501
0.479889
0.500042
0.521009
0.542848
0.565621
0.589399
0.614263
0.6403
0.667608
0.696293
0.72647
0.758266
0.791821
0.827284
0.864821
0.904609
0.946841
0.991723
1.03948
1.09035
1.14459
1.20247
1.26429
1.33035
1.401
1.47658
1.55748
1.6441
1.73687
1.83625
1.94272
2.05682
2.1791
2.31016
2.45063
2.6012
2.7626
2.93562
3.12108
3.31986
3.53291
3.76122
4.00585
4.26782
4.5482
4.84799
5.16814
5.50912
5.87156
6.25371
6.6568
7.06834
7.50215
7.88872
8.3389
8.48075
8.98475
8.04336
8.81286
4.11038
0.138391
0.144028
0.138364
0.144718
0.153884
0.161309
0.168761
0.177048
0.185804
0.194877
0.204344
0.214238
0.22455
0.23528
0.246439
0.258039
0.270092
0.282614
0.295621
0.309129
0.323152
0.33771
0.352824
0.368519
0.384824
0.401773
0.419401
0.437745
0.456848
0.476753
0.49751
0.519176
0.541813
0.565491
0.590287
0.616288
0.64359
0.672295
0.702518
0.734382
0.768021
0.803581
0.841221
0.881111
0.923436
0.968397
1.01621
1.0671
1.12133
1.17915
1.24085
1.30674
1.37713
1.45238
1.53286
1.61896
1.71111
1.80975
1.91537
2.02849
2.14966
2.27948
2.41859
2.56766
2.72745
2.89873
3.08237
3.27929
3.49047
3.71697
3.95992
4.22055
4.50009
4.79985
5.12113
5.46522
5.83309
6.22583
6.64264
7.08495
7.54307
8.02809
8.48167
8.99563
9.24378
9.81423
9.04375
9.85708
4.96173
0.137436
0.143688
0.138368
0.143723
0.152216
0.15927
0.166286
0.174122
0.182487
0.191209
0.200344
0.209931
0.219964
0.230441
0.241372
0.252771
0.264652
0.277029
0.289923
0.303353
0.317337
0.331896
0.347055
0.362843
0.379291
0.396438
0.414325
0.432994
0.452494
0.472872
0.49419
0.516504
0.539884
0.564406
0.590154
0.61722
0.645706
0.675722
0.70739
0.74084
0.776213
0.813661
0.853352
0.895462
0.940184
0.987726
1.03831
1.09218
1.14959
1.21081
1.27614
1.3459
1.42042
1.50007
1.58522
1.67629
1.77373
1.878
1.98962
2.10913
2.23711
2.3742
2.52108
2.67847
2.84717
3.02805
3.22202
3.4301
3.65337
3.893
4.15027
4.42658
4.72338
5.04221
5.38468
5.75246
6.14699
6.56987
7.02124
7.50289
8.00772
8.54473
9.06597
9.64579
10.0031
10.641
10.0558
10.9109
6.57134
0.13597
0.142606
0.13777
0.142266
0.150083
0.156768
0.163378
0.170779
0.178757
0.187128
0.195931
0.205208
0.214955
0.225171
0.235866
0.247052
0.258746
0.270966
0.283731
0.297064
0.310987
0.325524
0.340704
0.356557
0.373119
0.390432
0.408541
0.427495
0.447347
0.468152
0.489975
0.512879
0.536939
0.562237
0.588861
0.616911
0.646495
0.677728
0.710739
0.745664
0.782652
0.821863
0.863469
0.907655
0.954622
1.00458
1.05777
1.11443
1.17484
1.23926
1.30802
1.38143
1.45985
1.54365
1.63323
1.72902
1.83148
1.9411
2.05843
2.18402
2.3185
2.46252
2.61682
2.78217
2.95942
3.14949
3.35338
3.57218
3.80709
4.05939
4.3305
4.62199
4.93551
5.27288
5.636
6.02692
6.4476
6.90018
7.38573
7.90659
8.45815
9.04809
9.63798
10.2876
10.7583
11.4743
11.0907
12.0036
7.89272
0.133996
0.140797
0.136541
0.140313
0.147462
0.153779
0.160008
0.166992
0.174587
0.18261
0.191082
0.200045
0.2095
0.219447
0.229895
0.240857
0.25235
0.264394
0.27701
0.290226
0.304064
0.318554
0.333726
0.349614
0.366256
0.383699
0.401992
0.421187
0.441342
0.462518
0.484786
0.508216
0.532887
0.558886
0.586307
0.615254
0.64584
0.678189
0.712433
0.748716
0.787193
0.828031
0.871409
0.917519
0.966567
1.01878
1.07439
1.13365
1.19684
1.26426
1.33622
1.41305
1.49511
1.58281
1.67654
1.77675
1.88393
1.99859
2.12128
2.2526
2.3932
2.54377
2.70508
2.87796
3.06328
3.26205
3.47533
3.7043
3.95024
4.21457
4.49884
4.80478
5.13425
5.48931
5.8722
6.28533
6.73117
7.21243
7.73112
8.29028
8.88762
9.53024
10.1883
10.91
11.4958
12.2996
12.1348
13.1182
9.09571
0.131522
0.13828
0.134662
0.137834
0.144334
0.150283
0.156156
0.162741
0.16996
0.177637
0.185779
0.194426
0.203583
0.213252
0.22344
0.234164
0.245441
0.257292
0.269741
0.282815
0.296544
0.310958
0.326091
0.34198
0.358667
0.3762
0.394632
0.41402
0.434428
0.455922
0.478575
0.502464
0.527676
0.554299
0.582433
0.612189
0.643683
0.677045
0.712414
0.749939
0.789781
0.832114
0.877123
0.925008
0.975982
1.03027
1.08813
1.14981
1.2156
1.28581
1.36075
1.44078
1.52627
1.61761
1.71524
1.81962
1.93125
2.05065
2.17841
2.31515
2.46154
2.61832
2.78628
2.9663
3.15932
3.36637
3.5886
3.82727
4.08377
4.35962
4.6565
4.97631
5.32112
5.69323
6.09518
6.52977
6.99997
7.50907
8.06001
8.65662
9.29878
9.99346
10.7188
11.5132
12.2141
13.1082
13.1739
14.2274
10.7029
0.128549
0.135082
0.132122
0.134811
0.140687
0.146268
0.151804
0.158009
0.164858
0.172192
0.180004
0.188331
0.197184
0.206564
0.216482
0.226954
0.237997
0.249635
0.261894
0.274803
0.288393
0.302701
0.31776
0.333615
0.350306
0.367886
0.386411
0.405942
0.426547
0.448299
0.471273
0.495551
0.521225
0.54839
0.577152
0.607622
0.639925
0.674195
0.710575
0.749221
0.7903
0.833992
0.880488
0.929994
0.982731
1.03893
1.09886
1.16277
1.23097
1.30375
1.38147
1.46447
1.55314
1.64789
1.74916
1.85743
1.97322
2.09708
2.2296
2.37144
2.52329
2.68593
2.86018
3.04694
3.24724
3.46216
3.6929
3.94079
4.20733
4.49415
4.80307
5.13613
5.4956
5.88405
6.3043
6.75952
7.25318
7.78919
8.37137
9.00439
9.69026
10.4362
11.2277
12.0955
12.9112
13.9005
14.2041
15.3359
12.3988
0.125077
0.131228
0.12892
0.131228
0.136512
0.141725
0.14694
0.152781
0.159268
0.16626
0.173742
0.181746
0.190286
0.199367
0.209001
0.219203
0.229993
0.241397
0.25344
0.266155
0.279578
0.293744
0.308693
0.324471
0.341122
0.358702
0.377268
0.396887
0.41763
0.439571
0.462794
0.487387
0.513442
0.541061
0.570353
0.601438
0.634443
0.669505
0.706775
0.746412
0.78859
0.833493
0.88132
0.932282
0.986607
1.04454
1.10633
1.17227
1.24265
1.3178
1.39804
1.48376
1.57535
1.67322
1.77785
1.88971
2.00933
2.1373
2.27422
2.42077
2.57768
2.74574
2.92581
3.11885
3.32591
3.54813
3.78677
4.04326
4.31914
4.61618
4.93631
5.28173
5.65491
6.05862
6.496
6.97057
7.4863
8.04766
8.65936
9.32701
10.0545
10.85
11.7053
12.6461
13.5746
14.6658
15.2129
16.4435
13.8879
0.121108
0.126748
0.12506
0.127076
0.131805
0.136653
0.141558
0.147052
0.153183
0.159834
0.166984
0.174661
0.18288
0.191651
0.200984
0.210899
0.221416
0.232561
0.244364
0.256857
0.270078
0.284067
0.298866
0.314523
0.331089
0.348618
0.367174
0.386823
0.407641
0.429706
0.453106
0.477933
0.504284
0.532268
0.561997
0.593595
0.627191
0.662931
0.700968
0.741467
0.784606
0.830575
0.879578
0.931834
0.987576
1.04705
1.11053
1.17829
1.25065
1.32793
1.41048
1.49867
1.59292
1.69366
1.80135
1.9165
2.03966
2.17141
2.31239
2.4633
2.62488
2.79796
2.98344
3.1823
3.39565
3.62465
3.87065
4.13514
4.41975
4.72632
5.05693
5.41391
5.79991
6.21792
6.67135
7.16408
7.70053
8.28574
8.92526
9.62561
10.3926
11.2352
12.1512
13.1628
14.1994
15.3929
16.1823
17.5171
15.5784
0.116638
0.121672
0.120552
0.122351
0.126566
0.131051
0.135656
0.140816
0.146598
0.152908
0.159723
0.167067
0.174957
0.183404
0.192422
0.20203
0.212253
0.223115
0.234648
0.246888
0.259873
0.273647
0.288255
0.303748
0.320177
0.337603
0.35609
0.375709
0.396537
0.418657
0.442159
0.467141
0.493704
0.521958
0.552025
0.584031
0.618111
0.654412
0.693093
0.734323
0.778286
0.825176
0.875203
0.928592
0.985581
1.04642
1.1114
1.18079
1.25492
1.33412
1.41874
1.50918
1.60585
1.70919
1.81969
1.93786
2.06425
2.19949
2.34421
2.49914
2.66505
2.8428
3.03329
3.23758
3.45676
3.69211
3.945
4.21696
4.50973
4.82525
5.16569
5.53354
5.93159
6.36305
6.8316
7.34145
7.89745
8.5052
9.17103
9.90236
10.7067
11.5943
12.5681
13.6481
14.7882
16.0836
17.1091
18.5512
17.3694
0.111666
0.11603
0.115413
0.117053
0.120797
0.124925
0.129236
0.134072
0.13951
0.145479
0.151955
0.158959
0.166508
0.174617
0.183302
0.192583
0.202485
0.213036
0.224269
0.236223
0.248935
0.262452
0.276825
0.292103
0.308344
0.32561
0.343966
0.363489
0.384256
0.406355
0.42988
0.454928
0.48161
0.51004
0.540338
0.572638
0.607081
0.643817
0.683008
0.724829
0.769465
0.817119
0.868003
0.922347
0.980396
1.04241
1.10867
1.17948
1.25515
1.33603
1.42248
1.51489
1.6137
1.71935
1.83235
1.9532
2.08249
2.22084
2.36892
2.52747
2.69727
2.87921
3.07424
3.28341
3.50789
3.74897
4.00807
4.28681
4.58698
4.91061
5.25996
5.63766
6.04664
6.49033
6.97261
7.49804
8.07184
8.70013
9.38998
10.1497
10.9884
11.9177
12.945
14.09
15.3269
16.7249
17.9764
19.5437
18.9316
0.106185
0.109853
0.109661
0.111189
0.114505
0.118284
0.122305
0.126826
0.131924
0.137549
0.143681
0.150336
0.157533
0.165289
0.173621
0.182553
0.192109
0.202321
0.213223
0.224853
0.237254
0.250474
0.264564
0.279578
0.295576
0.312622
0.330787
0.350146
0.370781
0.392783
0.416247
0.441276
0.467984
0.496489
0.526916
0.559399
0.594085
0.63113
0.670698
0.712968
0.758132
0.806393
0.85797
0.913099
0.972027
1.03502
1.10237
1.17438
1.25137
1.3337
1.42173
1.51587
1.61656
1.72424
1.83944
1.96267
2.09454
2.23567
2.38675
2.54854
2.72183
2.90755
3.10666
3.32024
3.5495
3.79576
4.06051
4.3454
4.65228
4.98326
5.34072
5.72737
6.1463
6.60109
7.09588
7.63545
8.22544
8.87241
9.5841
10.3697
11.2396
12.2068
13.2829
14.4876
15.8125
17.3075
18.7665
20.4618
20.5446
0.100197
0.103173
0.103323
0.10477
0.107701
0.11114
0.114874
0.119084
0.123845
0.129123
0.134903
0.1412
0.148032
0.155418
0.163378
0.171936
0.18112
0.190962
0.201498
0.212769
0.224819
0.237696
0.251455
0.266153
0.281852
0.298618
0.316526
0.335651
0.35608
0.377906
0.401227
0.426149
0.452788
0.481265
0.511711
0.544264
0.579074
0.616301
0.656112
0.698692
0.744235
0.792949
0.845058
0.9008
0.960431
1.02422
1.09247
1.16547
1.24357
1.32712
1.4165
1.51213
1.61443
1.72388
1.841
1.96633
2.10047
2.24407
2.39782
2.5625
2.73893
2.92803
3.13082
3.34839
3.58197
3.83294
4.10281
4.39329
4.70629
5.04398
5.40883
5.80364
6.23165
6.69659
7.20278
7.75528
8.36001
9.02402
9.7556
10.5647
11.463
12.4648
13.5849
14.8445
16.2488
17.835
19.4803
21.3038
22.0568
0.0937
0.096019
0.0964286
0.0978116
0.100398
0.103508
0.106954
0.110858
0.115281
0.120208
0.125628
0.131554
0.138005
0.145003
0.152568
0.160726
0.169509
0.178948
0.189083
0.199954
0.211608
0.224095
0.237473
0.2518
0.267139
0.283561
0.301141
0.31996
0.340104
0.361668
0.384754
0.409473
0.435939
0.464281
0.494632
0.527132
0.561935
0.599206
0.639116
0.681853
0.727613
0.776609
0.829069
0.885236
0.945369
1.00975
1.07866
1.15243
1.23139
1.31591
1.40637
1.50319
1.60681
1.71772
1.83643
1.9635
2.09954
2.24521
2.40121
2.56833
2.74742
2.93941
3.14532
3.36629
3.60358
3.85857
4.13283
4.42809
4.74635
5.08979
5.46097
5.86279
6.29858
6.7722
7.28814
7.85169
8.46905
9.14762
9.89621
10.7255
11.6481
12.6797
13.8378
15.1454
16.6186
18.2887
20.0964
22.0537
23.3144
0.0866978
0.0884242
0.0890108
0.0903352
0.0926144
0.095408
0.0985666
0.102163
0.106248
0.110818
0.115867
0.121409
0.127463
0.134052
0.1412
0.148932
0.157283
0.166286
0.175982
0.186413
0.197628
0.209679
0.222622
0.23652
0.251441
0.267453
0.284637
0.303075
0.322855
0.344075
0.366838
0.391257
0.417453
0.445553
0.475697
0.508027
0.542698
0.579882
0.61975
0.662496
0.70832
0.757438
0.810082
0.866497
0.926948
0.991716
1.0611
1.13543
1.21503
1.30029
1.39159
1.48935
1.59403
1.70612
1.82613
1.95465
2.09228
2.23968
2.3976
2.5668
2.74817
2.94265
3.15127
3.37521
3.61573
3.87425
4.15236
4.45184
4.77471
5.12324
5.50002
5.90803
6.3507
6.832
7.35658
7.9299
8.55841
9.24982
10.0134
10.8603
11.8042
12.8617
14.0527
15.4018
16.9335
18.6766
20.6178
22.6984
24.4558
0.0791995
0.0804199
0.0811073
0.0823678
0.0843718
0.0868621
0.0897313
0.0930188
0.0967622
0.100967
0.105633
0.110776
0.116415
0.122574
0.129278
0.136557
0.144444
0.152976
0.162193
0.172142
0.18287
0.194434
0.20689
0.220302
0.23474
0.250277
0.266992
0.28497
0.304304
0.325093
0.347442
0.371466
0.397288
0.425037
0.454855
0.48689
0.521303
0.558262
0.597948
0.640554
0.686285
0.735361
0.788016
0.8445
0.90508
0.970043
1.03969
1.11436
1.19439
1.28015
1.37204
1.4705
1.57597
1.68897
1.81
1.93966
2.07856
2.22739
2.38687
2.55781
2.74108
2.93765
3.14858
3.37503
3.61831
3.87985
4.16128
4.4644
4.79126
5.14419
5.52581
5.93919
6.38783
6.87577
7.4078
7.98952
8.62757
9.32992
10.1061
10.9679
11.9295
13.0085
14.2264
15.6094
17.1877
18.9907
21.0345
23.2223
25.3223
0.0712228
0.0720392
0.0727599
0.0739417
0.0756964
0.077896
0.0804734
0.0834463
0.0868419
0.0906711
0.0949412
0.0996672
0.104871
0.110576
0.11681
0.123604
0.130993
0.139016
0.147715
0.157135
0.167329
0.178351
0.190262
0.203127
0.217016
0.232005
0.248175
0.265614
0.284415
0.304679
0.326513
0.350035
0.375371
0.402652
0.43202
0.463629
0.49764
0.534227
0.573571
0.61587
0.661332
0.710179
0.762649
0.818995
0.879488
0.944418
1.01409
1.08884
1.16902
1.25501
1.3472
1.44603
1.55197
1.66551
1.78719
1.9176
2.05735
2.20714
2.36771
2.53986
2.72449
2.92256
3.13514
3.36342
3.6087
3.87246
4.1563
4.46208
4.79186
5.14799
5.53315
5.95041
6.40335
6.89606
7.4334
8.02106
8.66583
9.37583
10.1609
11.0329
12.0067
13.1004
14.3366
15.7429
17.3531
19.1992
21.3149
23.5949
25.8932
0.0627943
0.0633162
0.0640134
0.065096
0.0666204
0.0685405
0.0708224
0.0734734
0.076513
0.0799558
0.0838142
0.0881054
0.0928515
0.0980782
0.103815
0.110093
0.11695
0.124426
0.132563
0.141411
0.151021
0.16145
0.17276
0.185017
0.198292
0.212663
0.228214
0.245034
0.263217
0.282868
0.304094
0.327013
0.351757
0.378457
0.40726
0.438318
0.471799
0.507877
0.546736
0.588578
0.633614
0.682068
0.734182
0.790212
0.850433
0.915137
0.984636
1.05926
1.13938
1.22536
1.31762
1.41659
1.52273
1.63657
1.75863
1.8895
2.02982
2.18028
2.34163
2.51468
2.70032
2.89955
3.11343
3.34315
3.59005
3.8556
4.14144
4.4494
4.7816
5.14041
5.52852
5.94905
6.4056
6.90234
7.44417
8.03685
8.68725
9.40361
10.1959
11.0763
12.0599
13.1651
14.4152
15.8387
17.4711
19.3466
21.5057
23.8499
26.2032
0.0539519
0.0542857
0.0549142
0.0558727
0.0571788
0.0588272
0.0608086
0.0631277
0.0658002
0.068843
0.0722724
0.0761078
0.0803728
0.0850946
0.0903033
0.0960332
0.102322
0.10921
0.116744
0.124972
0.133947
0.143728
0.154376
0.165962
0.178556
0.192238
0.207091
0.223208
0.240686
0.259629
0.280148
0.302362
0.326401
0.352404
0.380516
0.410895
0.443708
0.479133
0.517356
0.558584
0.603028
0.650916
0.702494
0.758019
0.817769
0.882041
0.95115
1.02543
1.10525
1.19099
1.28307
1.38191
1.488
1.60185
1.72399
1.85503
1.99561
2.14641
2.30819
2.48178
2.66807
2.86805
3.08281
3.31355
3.5616
3.82846
4.11575
4.42536
4.75939
5.12022
5.51059
5.93363
6.39294
6.89273
7.43794
8.03437
8.68893
9.40992
10.2074
11.0936
12.0836
13.196
14.4544
15.8871
17.5297
19.4168
21.587
23.9441
26.2639
0.04475
0.0449845
0.0455113
0.0463207
0.0474124
0.0487931
0.0504667
0.0524416
0.0547335
0.0573604
0.0603415
0.0636987
0.067457
0.071645
0.0762945
0.0814408
0.0871228
0.0933826
0.100267
0.107825
0.116113
0.125187
0.135114
0.14596
0.157801
0.170717
0.184793
0.200121
0.216799
0.234934
0.254639
0.276035
0.299254
0.324431
0.35172
0.381277
0.413274
0.447886
0.48531
0.525746
0.569412
0.616539
0.667372
0.722174
0.781225
0.844823
0.913287
0.986958
1.0662
1.1514
1.24296
1.34135
1.44703
1.56051
1.68234
1.81312
1.95349
2.10415
2.26585
2.43941
2.62575
2.82585
3.0408
3.2718
3.52019
3.78745
4.07522
4.38539
4.72007
5.08161
5.47276
5.89665
6.35686
6.85759
7.40376
8.00117
8.65669
9.37857
10.1768
11.0634
12.0535
13.1654
14.4221
15.8514
17.4873
19.3626
21.5075
23.8234
26.0967
0.0352564
0.0354495
0.0358523
0.0364927
0.0373678
0.0384783
0.0398343
0.0414512
0.0433464
0.0455393
0.0480512
0.0509063
0.0541315
0.0577563
0.061814
0.0663412
0.0713777
0.0769671
0.0831566
0.0899966
0.0975427
0.105855
0.114998
0.125041
0.13606
0.148134
0.161353
0.175807
0.191597
0.20883
0.22762
0.24809
0.270372
0.29461
0.32095
0.349554
0.380594
0.414252
0.450722
0.490208
0.53293
0.57912
0.629028
0.682917
0.741072
0.803792
0.8714
0.944237
1.02267
1.10709
1.19791
1.29558
1.40058
1.51343
1.63466
1.76489
1.90475
2.05495
2.21624
2.38945
2.57548
2.77533
2.99007
3.22093
3.46923
3.73644
4.02422
4.33443
4.66918
5.03084
5.42212
5.84612
6.30643
6.80722
7.35338
7.95061
8.60573
9.32688
10.1239
11.0086
11.9957
13.1031
14.3526
15.771
17.3887
19.2357
21.3241
23.5574
25.6483
0.0255493
0.025717
0.0259826
0.0264413
0.0270922
0.0279233
0.0289484
0.0301906
0.0316706
0.0334088
0.0354283
0.0377551
0.0404179
0.0434479
0.0468795
0.0507504
0.055101
0.0599759
0.0654226
0.0714934
0.0782439
0.0857337
0.0940289
0.1032
0.113324
0.12448
0.136758
0.150249
0.165056
0.181287
0.199056
0.218489
0.239718
0.262885
0.288145
0.315657
0.345595
0.378144
0.413499
0.451865
0.493465
0.538533
0.587322
0.640097
0.697143
0.758765
0.825286
0.897052
0.97443
1.05781
1.14762
1.24431
1.34834
1.46025
1.58057
1.70992
1.84894
1.99833
2.15885
2.33132
2.51665
2.71583
2.92994
3.16019
3.40791
3.67456
3.96181
4.27149
4.60571
4.96682
5.35751
5.78085
6.2404
6.74031
7.28537
7.88121
8.53455
9.25335
10.0472
10.9277
11.9088
13.0079
14.2452
15.6459
17.2349
19.0397
21.044
23.1745
24.9638
0.0157108
0.0158265
0.015952
0.0162246
0.0166382
0.0171735
0.0178507
0.0186999
0.0197442
0.0210043
0.0225058
0.0242766
0.026347
0.0287493
0.0315192
0.0346949
0.0383181
0.0424335
0.0470895
0.0523379
0.0582352
0.064843
0.0722265
0.0804562
0.0896087
0.0997665
0.111017
0.123456
0.137182
0.152305
0.168944
0.187222
0.207272
0.229241
0.253282
0.279555
0.308237
0.339513
0.373577
0.410642
0.450928
0.494673
0.54213
0.593567
0.649272
0.70955
0.774726
0.845148
0.921186
1.00323
1.09171
1.18707
1.28979
1.40039
1.51942
1.64748
1.78521
1.93332
2.09256
2.26376
2.44782
2.64572
2.85854
3.08748
3.33385
3.59912
3.88492
4.19309
4.52567
4.88501
5.27377
5.69496
6.15209
6.64921
7.191
7.78299
8.43168
9.14482
9.93162
10.8032
11.7728
12.8567
14.0733
15.4458
16.9917
18.7387
20.6306
22.6506
24.024
0.00581954
0.00582149
0.00581539
0.00590244
0.00605878
0.00627536
0.0065851
0.00702148
0.00760665
0.00836366
0.00932027
0.0105061
0.0119526
0.0136936
0.0157655
0.0182072
0.021061
0.0243719
0.0281883
0.0325625
0.0375514
0.0432156
0.0496217
0.0568413
0.0649502
0.0740306
0.0841709
0.0954655
0.108016
0.121933
0.137331
0.154339
0.173092
0.193736
0.216423
0.241316
0.268595
0.298443
0.331058
0.36665
0.405444
0.447679
0.493609
0.543504
0.597656
0.65637
0.719974
0.788817
0.863268
0.943725
1.03061
1.12437
1.22548
1.33447
1.45189
1.57834
1.71446
1.86094
2.01855
2.1881
2.37049
2.56669
2.77778
3.00494
3.24947
3.51283
3.79662
4.10265
4.43295
4.78981
5.17585
5.59403
6.04776
6.54099
7.07827
7.66497
8.30736
9.01285
9.79024
10.65
11.6045
12.6688
13.8587
15.1956
16.6871
18.3647
20.1177
22.0161
22.8733
-0.0040547
-0.00425232
-0.00436897
-0.00446535
-0.00459362
-0.00472351
-0.00480327
-0.00480255
-0.00470163
-0.00447543
-0.00409298
-0.00352273
-0.00273229
-0.00168751
-0.000350883
0.00131678
0.00335827
0.00581819
0.0087448
0.0121912
0.0162138
0.0208736
0.0262374
0.0323755
0.039365
0.0472869
0.0562301
0.0662891
0.0775647
0.090168
0.104219
0.119841
0.137171
0.156356
0.177551
0.200921
0.22664
0.254896
0.285887
0.319827
0.356941
0.397468
0.441666
0.489806
0.542179
0.599096
0.660883
0.727892
0.800493
0.87908
0.964079
1.05594
1.15514
1.2622
1.37768
1.50216
1.63629
1.78077
1.93634
2.10382
2.2841
2.47814
2.68701
2.91188
3.15403
3.41489
3.69606
3.9993
4.3266
4.68021
5.06268
5.47691
5.92622
6.41442
6.94593
7.52589
8.16031
8.85624
9.62194
10.4672
11.4033
12.4439
13.6018
14.8965
16.3238
17.9221
19.5125
21.2815
21.6529
-0.0138489
-0.0143456
-0.0145384
-0.0148175
-0.0152654
-0.0157737
-0.0162672
-0.0167269
-0.0171382
-0.0174719
-0.0176933
-0.0177704
-0.0176699
-0.0173565
-0.0167931
-0.015939
-0.0147534
-0.0131913
-0.0112035
-0.00873809
-0.00573941
-0.00214577
0.00210897
0.00709527
0.0128888
0.0195709
0.0272294
0.0359592
0.0458615
0.0570476
0.0696344
0.0837506
0.0995334
0.117128
0.136688
0.15838
0.182382
0.20888
0.238073
0.270175
0.305411
0.344026
0.386276
0.432435
0.482794
0.537665
0.597376
0.662278
0.732742
0.809166
0.89197
0.981603
1.07855
1.18332
1.29647
1.41858
1.55031
1.69233
1.84539
2.0103
2.18794
2.37926
2.5853
2.80723
3.0463
3.30391
3.58163
3.88118
4.20451
4.55381
4.93154
5.34053
5.78396
6.2655
6.7894
7.36055
7.98461
8.66823
9.41905
10.2461
11.1593
12.171
13.2905
14.536
15.8889
17.4012
18.8107
20.4583
20.2309
-0.0235081
-0.0244062
-0.0246283
-0.025094
-0.0259046
-0.0268266
-0.0277591
-0.0287064
-0.0296598
-0.030584
-0.0314406
-0.0321971
-0.0328204
-0.0332749
-0.0335224
-0.0335228
-0.0332361
-0.0326178
-0.0316184
-0.0301884
-0.0282707
-0.0258037
-0.0227233
-0.0189593
-0.0144371
-0.0090762
-0.002788
0.00451938
0.0129497
0.0226122
0.0336269
0.0461198
0.0602282
0.0760969
0.0938851
0.113755
0.135882
0.160458
0.187678
0.217761
0.250933
0.287438
0.327534
0.371496
0.419618
0.47221
0.529603
0.592146
0.660212
0.734197
0.814521
0.901635
0.996016
1.09818
1.20867
1.32808
1.45704
1.59624
1.7464
1.90834
2.0829
2.27105
2.4738
2.69229
2.92775
3.18156
3.45523
3.75045
4.06911
4.41334
4.78551
5.18834
5.6249
6.09868
6.61371
7.1746
7.78669
8.45611
9.18986
9.99611
10.8834
11.8625
12.9389
14.1303
15.401
16.8227
18.0371
19.5655
18.7257
-0.0329829
-0.0343791
-0.0345727
-0.0352367
-0.0364607
-0.0378329
-0.0392317
-0.0406957
-0.0422231
-0.0437699
-0.045294
-0.0467638
-0.0481454
-0.0494036
-0.0505
-0.0513963
-0.0520521
-0.0524239
-0.0524643
-0.0521217
-0.0513422
-0.0500638
-0.0482235
-0.0457537
-0.0425794
-0.038621
-0.0337928
-0.0280008
-0.0211428
-0.0131104
-0.00378321
0.00696608
0.0192732
0.0332835
0.0491526
0.0670454
0.0871381
0.109621
0.134693
0.162569
0.19348
0.227669
0.265396
0.306939
0.352589
0.40266
0.457479
0.5174
0.582791
0.65405
0.731597
0.815879
0.907373
1.00659
1.11407
1.23042
1.35624
1.49221
1.63907
1.79761
1.96866
2.15315
2.35211
2.56663
2.79793
3.04734
3.31633
3.60655
3.91983
4.2582
4.62396
5.0197
5.44834
5.91322
6.41812
6.96735
7.56584
8.21921
8.93375
9.71669
10.575
11.5182
12.547
13.6798
14.8612
16.1875
17.1957
18.605
17.3343
-0.0422307
-0.0442062
-0.0443046
-0.0451886
-0.0468827
-0.0487429
-0.0506359
-0.0526483
-0.0547837
-0.0569858
-0.0592101
-0.0614259
-0.0636007
-0.0656991
-0.0676826
-0.0695152
-0.0711562
-0.0725636
-0.0736923
-0.0744906
-0.074905
-0.0748756
-0.0743423
-0.0732364
-0.0714856
-0.0690119
-0.0657305
-0.0615496
-0.056364
-0.0500683
-0.042541