/*--------------------------------*- C++ -*----------------------------------*\
  =========                 |
  \\      /  F ield         | OpenFOAM: The Open Source CFD Toolbox
   \\    /   O peration     | Website:  https://openfoam.org
    \\  /    A nd           | Version:  11
     \\/     M anipulation  |
\*---------------------------------------------------------------------------*/
FoamFile
{
    format      ascii;
    class       surfaceScalarField;
    location    "150";
    object      phi;
}
// * * * * * * * * * * * * * * * * * * * * * * * * * * * * * * * * * * * * * //

dimensions      [0 3 -1 0 0 0 0];

internalField   nonuniform List<scalar> 
62845
(
48230.7
-552842
554416
45274.1
-525601
528558
43370.8
-499163
501066
41036.4
-474231
476566
39096.2
-450428
452369
37078.8
-427871
429888
35271.7
-406395
408202
33497.4
-386006
387781
31837.4
-366615
368275
30238.9
-348207
349805
28742.8
-330722
332218
27324.6
-314112
315530
25954.8
-298312
299682
24683.4
-283341
284613
23442.1
-269080
270321
22301.3
-255573
256714
21189.2
-242703
243815
20134.1
-230513
231568
19151.2
-218930
219913
18210.8
-207910
208851
17298.4
-197453
198365
16457.8
-187542
188383
15645.1
-178092
178905
14874.8
-169144
169915
14146.8
-160641
161369
13446.5
-152553
153253
12788.4
-144893
145551
12157.9
-137604
138235
11569.5
-130700
131289
10979.4
-124107
124697
10445.9
-117884
118417
9925.08
-111957
112478
9431.63
-106340
106834
8965.45
-100990
101456
8511.95
-95920.8
96374.3
8085.68
-91102.7
91529
7672.07
-86535.7
86949.3
7285.69
-82190.2
82576.6
6911.99
-78064.6
78438.3
6553.93
-74149.8
74507.8
6211.55
-70432.4
70774.8
5884.91
-66901.9
67228.6
5571.18
-63548
63861.7
5271.91
-60364.4
60663.7
4984.29
-57339.4
57627
4709.88
-54466.8
54741.2
4444.45
-51737.8
52003.2
4192.49
-49147.7
49399.7
3949.77
-46684.8
46927.5
3717.9
-44347.4
44579.2
3495.57
-42125.1
42347.5
3282.93
-40015
40227.6
3077.2
-38008.2
38213.9
2882.91
-36104.5
36298.8
2695.83
-34293.8
34480.8
2516.1
-32571.5
32751.2
2345.3
-30937.6
31108.4
2180.66
-29383.4
29548.1
2025.2
-27905.9
28061.4
1876.13
-26502.2
26651.2
1733.55
-25167.8
25310.4
1597.56
-23898.5
24034.4
1468.26
-22692.7
22821.9
1345.73
-21546.1
21668.6
1228.6
-20455.8
20572.9
1118.39
-19418.9
19529.1
1012.28
-18432.6
18538.7
911.783
-17495.3
17595.8
818.38
-16605.8
16699.2
729.266
-15756.7
15845.8
644.495
-14951
15035.8
565.565
-14184.4
14263.4
492.507
-13457
13530
422.54
-12763
12833
358.589
-12104
12168
298.172
-11478.2
11538.6
242.794
-10882.9
10938.3
191.981
-10317.5
10368.3
145.839
-9780.72
9826.86
104.106
-9271.12
9312.85
67.7104
-8788.67
8825.07
34.7641
-8332.38
8365.32
10.315
-7899.68
7924.13
-14.2153
-7503.04
7527.57
-21.926
-7105.46
7113.17
-38.8912
-6808.66
6825.63
-23.3047
-6386.45
6370.86
-44.0977
-6396.78
6417.57
-5695.83
5651.73
75146.3
-549151
71307.9
-521763
67786.4
-495642
64372.4
-470817
61156.7
-447213
58072
-424786
55164.6
-403488
52391.3
-383233
49756.2
-363980
47263
-345714
44889.1
-328348
42630.4
-311853
40504.1
-296186
38464.5
-281302
36541.8
-267157
34706.1
-253738
32972.2
-240969
31310.7
-228852
29736.2
-217356
28248.5
-206423
26847.6
-196052
25489.5
-186184
24218.1
-176820
22989.4
-167916
21832.5
-159484
20747.5
-151468
19705
-143851
18704.9
-136604
17747.2
-129742
16861.1
-123221
16017.2
-117040
15200.9
-111141
14412.3
-105552
13680.3
-100258
12975.9
-95216.4
12313.6
-90440.4
11678.8
-85900.9
11071.4
-81582.9
10487.3
-77480.4
9936.44
-73599
9408.83
-69904.8
8905.94
-66399
8426.39
-63068.4
7967.31
-59905.3
7528.83
-56900.9
7111.02
-54049
6712.54
-51339.3
6330.59
-48765.8
5966.75
-46321
5618.24
-43998.9
5286.63
-41793.5
4969.16
-39697.5
4667.4
-37706.4
4377.13
-35814.2
4099.91
-34016.6
3837.34
-32308.9
3585.17
-30685.5
3344.97
-29143.2
3115.4
-27676.3
2896.56
-26283.3
2688.54
-24959.8
2489.99
-23699.9
2302.43
-22505.1
2121.63
-21365.3
1950.52
-20284.7
1789.18
-19257.6
1636.24
-18279.6
1490.3
-17349.4
1351.42
-16466.9
1219.67
-15625
1096.51
-14827.9
980.568
-14068.5
869.055
-13345.5
764.874
-12658.8
668.067
-12007.2
576.877
-11387
491.523
-10797.5
412.119
-10238.1
338.52
-9707.12
270.675
-9203.28
209.008
-8727.01
152.727
-8276.1
104.41
-7851.37
59.0136
-7457.65
28.7187
-7075.16
-6.74534
-6773.2
-10.768
-6382.43
-50.5044
-6357.05
-5746.34
102124
-543808
96984.3
-516623
92120.8
-490778
87475.7
-466172
83086.9
-442824
78902.2
-420602
74922.1
-399508
71146.7
-379458
67561.7
-360395
64152.7
-342305
60919.5
-325115
57847.5
-308781
54936.7
-293275
52157.5
-278523
49524.6
-264525
47023.2
-251236
44653.2
-238599
42414.5
-226613
40263
-215204
38228.1
-204388
36280.2
-194104
34448.7
-184353
32704.1
-175076
31060.9
-166272
29475.3
-157899
27976.4
-149969
26549.6
-142424
25209.2
-135264
23926.1
-128459
22700.2
-121995
21516.9
-115857
20419.8
-110044
19379.8
-104512
18367.5
-99245.9
17426.8
-94275.6
16513.9
-89527.5
15643.3
-85030.3
14817.9
-80757.5
14042.2
-76704.7
13294.2
-72851
12584.3
-69194.8
11906.5
-65721.3
11259.6
-62421.5
10645
-59290.8
10058.4
-56314.4
9498.57
-53489.1
8965.45
-50806.2
8456.28
-48256.6
7971.17
-45835.9
7507.31
-43535
7064.83
-41351
6643.82
-39276.5
6241.51
-37304.1
5859.45
-35432.2
5493.41
-33650.5
5144.94
-31960.5
4814.16
-30354.7
4496.81
-28825.9
4195.9
-27375.4
3910.04
-25997.5
3635.03
-24684.8
3375.26
-23440.1
3126.48
-22256.3
2893.07
-21131.8
2669.35
-20061
2455.38
-19043.6
2252.65
-18076.9
2061.23
-17158
1878.28
-16283.9
1706.73
-15453.4
1543.73
-14664.9
1387.95
-13912.7
1242.26
-13199.8
1105.27
-12521.9
974.382
-11876.3
851.627
-11264.2
736.781
-10682.7
628.985
-10130.3
528.338
-9606.47
434.851
-9109.79
348.314
-8640.47
268.509
-8196.29
197.071
-7779.93
130.663
-7391.24
78.3901
-7022.89
23.8666
-6718.68
1.14059
-6359.7
-54.8663
-6301.04
-5801.2
128900
-536988
122403
-510127
116228
-484602
110378
-460323
104789
-437235
99507.8
-415321
94491
-394491
89709.2
-374676
85191.8
-355877
80880.1
-337993
76788.8
-321023
72917.8
-304910
69208.2
-289565
65718.7
-275033
62390.5
-261196
59238.1
-248084
56232.1
-235593
53372.4
-223753
50673.5
-212506
48106
-201820
45655.1
-191653
43335.5
-182033
41132.4
-172873
39031.1
-164171
37046
-155914
35147.9
-148071
33351.4
-140627
31641.6
-133554
30018.5
-126836
28467.6
-120444
27003.2
-114392
25610.7
-108651
24275.5
-103176
23012.2
-97982.6
21806.1
-93069.5
20671.7
-88393.1
19579.9
-83938.4
18545.2
-79722.9
17558.9
-75718.4
16622.5
-71914.6
15728.7
-68301
14877.5
-64870.1
14069
-61613
13295.9
-58517.7
12561.2
-55579.7
11862.1
-52790
11194.3
-50138.4
10559.3
-47621.6
9952.8
-45229.4
9376.44
-42958.6
8827.35
-40801.9
8302.76
-38751.9
7804.18
-36805.5
7327.39
-34955.4
6875.37
-33198.5
6442.43
-31527.5
6030.1
-29942.4
5639.92
-28435.7
5266.2
-27001.7
4910.47
-25641.8
4574.23
-24348.5
4251.81
-23117.7
3946.13
-21950.6
3652.97
-20838.7
3376.66
-19784.6
3114.42
-18781.4
2864.85
-17827.3
2626.56
-16919.7
2402.46
-16059.8
2188.3
-15239.2
1985.57
-14462.1
1794.26
-13721.4
1611.64
-13017.2
1439.14
-12349.4
1277.62
-11714.8
1124.64
-11111.3
980.244
-10538.3
844.546
-9994.61
717.199
-9479.12
597.97
-8990.56
487.055
-8529.56
383.846
-8093.09
289.678
-7685.76
202.093
-7303.65
128.059
-6948.86
54.7482
-6645.37
12.8214
-6317.77
-58.9459
-6229.27
-5860.15
155312
-528729
147491
-502306
140037
-477149
132970
-453255
126269
-430534
119877
-408929
113809
-388423
108065
-368932
102601
-350413
97416
-332808
92496.1
-316103
87796.8
-300211
83362.1
-285131
79133.1
-270804
75124.4
-257188
71306.5
-244266
67693.9
-231981
64257.2
-220317
60981.6
-209230
57881.7
-198720
54942.7
-188714
52135.1
-179226
49473.6
-170211
46958
-161656
44558.9
-153515
42276.3
-145788
40110.1
-138461
38045.5
-131490
36082.6
-124873
34221.2
-118583
32461.2
-112632
30758.8
-106949
29172.3
-101590
27657.9
-96468.2
26200.9
-91612.5
24815.9
-87008.1
23517.4
-82640
22272
-78477.4
21088.3
-74534.7
19960.5
-70786.8
18887.1
-67227.6
17866.8
-63849.8
16895.1
-60641.3
15970.8
-57593.3
15089.4
-54698.3
14251
-51951.6
13452.7
-49340.1
12691.8
-46860.7
11968.3
-44505.9
11279.3
-42269.7
10622.2
-40144.8
9996.78
-38126.6
9400.45
-36209.2
8834.67
-34389.6
8293.73
-32657.6
7780.6
-31014.4
7291.04
-29452.8
6823.68
-27968.4
6381.47
-26559.5
5958.73
-25219
5556.95
-23946.8
5174.76
-22735.5
4810.78
-21586.7
4465.07
-20493
4136.24
-19455.8
3822.9
-18468
3526.53
-17531
3245.73
-16638.9
2976.28
-15790.4
2722.48
-14985.4
2481.49
-14221.1
2252
-13491.9
2036.78
-12801.9
1831.68
-12144.3
1637.6
-11520.7
1454.14
-10927.8
1281.23
-10365.4
1117.99
-9831.36
964.615
-9325.75
820.602
-8846.55
685.696
-8394.65
559.941
-7967.33
443.826
-7569.65
335.89
-7195.72
241.598
-6854.56
150.002
-6553.77
89.8742
-6257.65
3.8983
-6143.3
-5856.25
181329
-519091
172172
-493149
163488
-468465
155220
-444987
147379
-422693
139935
-401485
132861
-381349
126140
-362211
119744
-344017
113686
-326751
107923
-310340
102470
-294757
97265.8
-279927
92341.6
-265880
87652.6
-252499
83198.6
-239812
78965
-227747
74951.5
-216303
71143.3
-205422
67511.1
-195088
64069.3
-185272
60803.2
-175960
57698
-167106
54738.9
-158696
51926
-150702
49273.6
-143136
46723.2
-135911
44318.6
-129085
42030.4
-122585
39873.2
-116426
37788.5
-110548
35849.2
-105009
33967.6
-99708.3
32187.6
-94688.1
30508.9
-89933.9
28902.5
-85401.7
27368.3
-81105.8
25922.3
-77031.4
24539.7
-73152.1
23226.3
-69473.4
21977.7
-65979.1
20788.2
-62660.3
19656.4
-59509.4
18580.7
-56517.6
17556.8
-53674.4
16580.5
-50975.3
15653.3
-48412.9
14770.7
-45978.2
13930.1
-43665.2
13128.5
-41468.1
12367.4
-39383.7
11642.7
-37401.8
10951.4
-35517.9
10293.7
-33731.8
9669.53
-32033.4
9073.28
-30418.1
8506.43
-28886
7967.59
-27429.5
7453.96
-26045.9
6965.59
-24730.6
6499.68
-23480.8
6059.12
-22295
5638.24
-21165.8
5239.93
-20094.7
4858.55
-19074.4
4498.38
-18107.9
4153.79
-17186.4
3827.62
-16312.7
3518.5
-15481.3
3225.02
-14692
2944.41
-13940.5
2680.87
-13228.4
2430.24
-12551.3
2192.55
-11906.6
1966.72
-11294.9
1753.62
-10714.7
1552.14
-10163.9
1361.98
-9641.2
1182.64
-9146.41
1013.87
-8677.78
855.384
-8236.17
706.999
-7818.95
569.118
-7431.77
440.5
-7067.1
325.666
-6739.73
215.709
-6443.82
135.651
-6177.59
35.3265
-6042.97
-5820.92
206844
-508109
196388
-482693
186461
-458538
177053
-435578
168087
-413728
159593
-392992
151513
-373268
143846
-354544
136577
-336747
129647
-319821
123085
-303779
116833
-288505
110904
-273999
105270
-260246
99930.7
-247159
94841
-234722
90015.7
-222922
85425.6
-211713
81070.4
-201067
76935.3
-190953
73020.2
-181357
69281
-172220
65732.2
-163557
62359.1
-155323
59161.6
-147504
56110.3
-140084
53219.7
-133020
50475.1
-126340
47861.8
-119972
45379.7
-113944
43028.7
-108197
40779.6
-102760
38646.8
-97575.5
36630.4
-92671.6
34701
-88004.5
32873.1
-83573.9
31133.8
-79366.4
29474.1
-75371.7
27901.3
-71579.3
26405.3
-67977.3
24981.5
-64555.4
23627.2
-61306
22339.5
-58221.7
21113.9
-55292
19947.5
-52508.1
18839.1
-49866.9
17782.8
-47356.5
16778.6
-44974
15822.2
-42708.9
14913.7
-40559.6
14047.3
-38517.4
13224.6
-36579.1
12441.2
-34734.5
11695.8
-32986.4
10985.6
-31323.1
10310.5
-29743.1
9667.72
-28243.2
9055.95
-26817.8
8473.77
-25463.7
7921.2
-24178.1
7395.43
-22955.1
6893.65
-21793.2
6417.3
-20689.4
5965
-19642.4
5535.34
-18644.8
5124.12
-17696.6
4736.98
-16799.2
4366.9
-15942.7
4016.71
-15131.1
3682.21
-14357.5
3367.6
-13625.9
3065.91
-12926.7
2781.33
-12266.7
2510.98
-11636.2
2255.51
-11039.4
2013.31
-10472.5
1783.87
-9934.5
1567.23
-9424.56
1362.35
-8941.53
1169.2
-8484.62
987.325
-8054.29
816.583
-7648.2
656.876
-7272.06
507.757
-6917.98
372.121
-6604.1
243.279
-6314.97
142.543
-6076.85
27.8235
-5928.25
-5793.1
231818
-495800
220107
-470982
208985
-447415
198409
-425003
188379
-403698
178851
-383464
169795
-364212
161196
-345945
153025
-328577
145267
-312063
137893
-296404
130901
-281513
124263
-267361
117934
-253917
111929
-241154
106248
-229041
100831
-217505
95694
-206576
90806.5
-196179
86168.7
-186315
81751.1
-176939
77568.2
-168038
73590.7
-159580
69803.7
-151536
66221.8
-143922
62800.9
-136663
59570.2
-129789
56485.7
-123256
53562
-117048
50784.2
-111166
48137.9
-105550
45622.8
-100245
43238.8
-95191.6
40971.4
-90404.2
38805.9
-85838.9
36756.7
-81524.7
34807.9
-77417.6
32954.9
-73518.7
31192
-69816.4
29514.7
-66300.1
27921.6
-62962.3
26405.4
-59789.8
24964.7
-56780.9
23592
-53919.4
22289.1
-51205.1
21048.5
-48626.3
19867.4
-46175.5
18744.4
-43851
17678.1
-41642.5
16661.2
-39542.7
15695.3
-37551.4
14773.1
-35656.9
13899
-33860.5
13066
-32153.3
12273.8
-30531
11521.3
-28990.5
10804.2
-27526
10122.3
-26135.9
9473.01
-24814.4
8856.26
-23561.3
8269.22
-22368
7710.52
-21234.5
7180.16
-20159.1
6675.32
-19137.5
6194.62
-18164.1
5739.46
-17241.5
5305.62
-16365.4
4894.51
-15531.6
4501.94
-14738.5
4132.08
-13987.6
3777.99
-13271.8
3443.82
-12592.5
3125.39
-11948.3
2824.51
-11335.3
2538.72
-10753.6
2267.87
-10201.6
2011.38
-9678.01
1768.41
-9181.6
1538.88
-8712
1321.93
-8267.67
1117.33
-7849.7
924.75
-7455.62
743.861
-7091.17
574.313
-6748.44
418.338
-6448.12
270.928
-6167.57
148.813
-5954.74
20.1577
-5799.6
-5772.94
256149
-482180
243215
-458048
230927
-435127
219259
-413334
208181
-392619
197633
-372916
187646
-354225
178132
-336431
169104
-319549
160548
-303506
152390
-288246
144659
-273782
137312
-260013
130332
-246938
123706
-234528
117404
-222739
111426
-211527
105742
-200892
100351
-190789
95211
-181175
90349.7
-172078
85708.7
-163396
81317.1
-155188
77145.5
-147365
73164.6
-139941
69403.5
-132902
65818.2
-126204
62423.1
-119861
59174.4
-113800
56101.1
-108093
53188.6
-102638
50407.6
-97464
47758
-92542
45254.2
-87900.5
42881.7
-83466.4
40608.3
-79251.3
38454.4
-75263.6
36406.7
-71471.1
34460.9
-67870.6
32609.8
-64448.9
30850.2
-61202.7
29177.9
-58117.5
27585.5
-55188.5
26073.2
-52407
24633.5
-49765.5
23263.6
-47256.4
21963.6
-44875.4
20724.6
-42612
19546.8
-40464.8
18427.3
-38423.2
17361.8
-36485.9
16348.8
-34643.9
15384.1
-32895.8
14467.6
-31236.9
13595.1
-29658.5
12763.7
-28159.2
11974.9
-26737.2
11224.4
-25385.5
10510.9
-24100.8
9831.37
-22881.8
9185.94
-21722.6
8571.75
-20620.3
7987.4
-19574.7
7431.49
-18581.6
6905.41
-17638
6403.54
-16739.6
5925.85
-15887.7
5472.37
-15078.1
5043.08
-14309.2
4633.77
-13578.3
4245.83
-12883.9
3877.85
-12224.6
3527.07
-11597.5
3194.99
-11003.2
2880.21
-10438.9
2581.49
-9902.92
2298.58
-9395.1
2030.65
-8913.66
1776.92
-8458.28
1537.15
-8027.9
1310.62
-7623.17
1096.99
-7241.99
896.028
-6890.21
707.429
-6559.84
532.736
-6273.43
367.937
-6002.77
227.578
-5814.38
83.8694
-5655.89
-5689.07
279837
-467308
265711
-443922
252289
-421705
239529
-400575
227418
-380508
215912
-361409
204980
-343294
194609
-326060
184739
-309679
175370
-294138
166488
-279364
158019
-265313
149992
-251986
142377
-239323
135130
-227281
128237
-215846
121711
-205001
115495
-194675
109602
-184896
104003
-175576
98669.3
-166744
93614.2
-158341
88808.7
-150383
84238.2
-142794
79916.9
-135620
75786.5
-128772
71875.8
-122294
68141.1
-116126
64625.9
-110284
61257.2
-104724
58064.1
-99444.7
55031.8
-94431.8
52160.3
-89670.4
49405.7
-85145.9
46797.2
-80857.9
44334.6
-76788.7
41981.4
-72910.5
39746.4
-69236.1
37619.2
-65743.5
35598.5
-62428.1
33676.8
-59281.1
31849.9
-56290.5
30113.3
-53451.9
28462.6
-50756.3
26892
-48194.9
25400.1
-45764.5
23979.6
-43454.9
22629.1
-41261.5
21344.2
-39179.9
20123.5
-37202.5
18961.2
-35323.6
17855.9
-33538.7
16806.2
-31846
15806.3
-30237
14854.8
-28707.1
13951.8
-27256.1
13092.8
-25878.3
12273.7
-24566.4
11497.3
-23324.4
10756.5
-22141
10052.6
-21018.8
9385.82
-19953.5
8750.32
-18939.2
8144.75
-17976.1
7570.51
-17063.8
7024.75
-16193.8
6506.07
-15369
6013.04
-14585
5544.26
-13840.4
5098.33
-13132.4
4675.19
-12460.8
4273.46
-11822.8
3893.11
-11217.2
3531.36
-10641.5
3188.03
-10095.5
2862.59
-9577.48
2553.78
-9086.29
2261.3
-8621.19
1984.21
-8181.19
1721.93
-7765.62
1473.7
-7374.95
1239.55
-7007.83
1018.68
-6669.34
810.906
-6352.07
617.173
-6079.7
434.817
-5820.41
276.398
-5655.96
115.659
-5495.15
-5573.42
302769
-451230
287495
-428648
272968
-407178
259177
-386784
246063
-367395
233612
-348959
221780
-331462
210538
-314817
199886
-299026
189735
-283987
180099
-269729
170965
-256179
162273
-243294
154008
-231058
146171
-219444
138731
-208406
131658
-197929
124940
-187956
118544
-178501
112487
-169519
106724
-160981
101255
-152872
96036.2
-145163
91110.6
-137869
86405.4
-130915
81949.5
-124316
77713.8
-118058
73697.9
-112110
69858
-106444
66223.2
-101089
62764.1
-95985.6
59480.7
-91148.4
56372.8
-86562.6
53411.2
-82184.3
50594.4
-78041
47910.6
-74104.9
45365.5
-70365.4
42946.1
-66816.6
40646.4
-63443.8
38462
-60243.7
36382.6
-57201.8
34408.4
-54316.2
32528.9
-51572.5
30742.8
-48970.2
29045.7
-46497.8
27431.8
-44150.6
25896.7
-41919.8
24437.5
-39802.3
23049.8
-37792.2
21729.4
-35882.1
20474.7
-34069
19281.5
-32345.5
18146.9
-30711.4
17066.5
-29156.6
16040.3
-27680.9
15064.2
-26279.9
14135.1
-24949.2
13254.5
-23685.7
12413.9
-22483.8
11616
-21343.1
10856.7
-20259.5
10134.5
-19231.2
9449.35
-18254.1
8798.4
-17325.1
8176.07
-16441.4
7587.93
-15605.7
7028.32
-14809.4
6495.86
-14052.6
5989.1
-13333.7
5509.4
-12652.7
5053.96
-12005.3
4621.33
-11390.2
4208.93
-10804.8
3818.44
-10251
3447.68
-9724.77
3096.03
-9225.84
2762.38
-8752.64
2446.03
-8304.83
2146.14
-7881.3
1862.03
-7481.5
1593.12
-7106.03
1338.67
-6753.39
1098.17
-6428.84
871.519
-6125.41
658.946
-5867.12
458.441
-5619.91
280.164
-5477.68
103.211
-5318.2
-5470.2
324913
-433960
308507
-412242
292935
-391606
278127
-371976
264056
-353323
250705
-335608
238003
-318760
225950
-302764
214486
-287562
203611
-273112
193267
-259385
183454
-246366
174127
-233967
165271
-222203
156857
-211030
148856
-200404
141252
-190325
134045
-180750
127192
-171647
120677
-163004
114485
-154790
108617
-147004
103043
-139589
97733.5
-132559
92688.2
-125869
87907.1
-119535
83361
-113512
79020.3
-107770
74928.8
-102353
71027.9
-97188.2
67317.6
-92275.3
63797.7
-87628.5
60439
-83203.9
57261.8
-79007.1
54238.2
-75017.5
51363.8
-71230.5
48634.3
-67635.8
46037.8
-64220.1
43569.9
-60975.9
41224.7
-57898.6
38995
-54972
36874.9
-52196.1
34862.8
-49560.4
32947.2
-47054.6
31125.1
-44675.7
29393.5
-42419
27748.1
-40274.4
26183.1
-38237.3
24695.6
-36304.7
23281.2
-34467.7
21934.2
-32722
20656
-31067.2
19439.3
-29494.7
18282.8
-28000
17183.4
-26581.6
16138.5
-25235
15143.6
-23954.3
14197.3
-22739.5
13298.2
-21584.7
12444.8
-20489.8
11632.9
-19447.5
10859.6
-18457.9
10124.8
-17519.4
9425.85
-16626.1
8763.92
-15779.5
8132.06
-14973.8
7531.67
-14209
6962.64
-13483.5
6422.17
-12793.2
5907.46
-12138
5418.46
-11516.3
4954.29
-10926
4514.33
-10364.8
4095.96
-9832.63
3698.97
-9327.78
3321.98
-8848.85
2964.35
-8395.02
2625.11
-7965.59
2303.39
-7559.57
1998.34
-7176.46
1709.27
-6816.96
1435.64
-6479.76
1176.53
-6169.73
931.615
-5880.5
700.569
-5636.08
482.775
-5402.11
283.742
-5278.65
90.675
-5125.13
-5379.53
346214
-415586
328748
-394776
312132
-374990
296367
-356212
281382
-338338
267148
-321374
253620
-305232
240785
-289929
228569
-275346
216986
-261530
205978
-248377
195500
-235888
185567
-224034
176136
-212771
167161
-202055
158657
-191900
150565
-182234
142871
-173056
135560
-164336
128631
-156075
122040
-148199
115773
-140737
109829
-133646
104180
-126909
98809
-120499
93702.9
-114429
88861
-108670
84268.6
-103177
79881.8
-97966.2
75715
-93021.4
71782.7
-88343
68026.4
-83872.2
64454.8
-79632.2
61063.4
-75615.6
57841.8
-71795.9
54781.3
-68170
51871.6
-64726.1
49105.3
-61453.8
46479.5
-58350
43979.4
-55398.5
41606.6
-52599.2
39349.3
-49938.8
37203.2
-47414.3
35163.8
-45015.2
33226.7
-42738.6
31383.2
-40575.6
29630.5
-38521.6
27965.4
-36572.3
26380.9
-34720.2
24874
-32960.8
23443.2
-31291.2
22082.8
-29706.8
20788.3
-28200.3
19557
-26768.7
18387.4
-25411.9
17275
-24122.6
16217.1
-22896.4
15212.2
-21734.6
14256.1
-20628.5
13345.7
-19579.4
12481.2
-18583
11661
-17637.7
10879.4
-16737.8
10136.5
-15883.2
9430.84
-15073.8
8760.89
-14303.9
8123.79
-13571.9
7518.2
-12878
6942.63
-12217.6
6395.65
-11591
5875.83
-10996.5
5382.69
-10432.9
4914.12
-9896.25
4469.11
-9387.63
4046.63
-8905.3
3645.51
-8447.73
3265.05
-8014.56
2903.84
-7604.38
2561.22
-7216.96
2236.39
-6851.63
1928.28
-6508.85
1636.35
-6187.83
1359.7
-5893.08
1098.28
-5619.08
851.178
-5388.97
618.219
-5169.15
403.917
-5064.35
197.05
-4918.27
-5182.48
366598
-396109
348102
-376280
330529
-357417
313823
-339505
297954
-322470
282880
-306300
268572
-290924
254955
-276312
242046
-262436
229755
-249239
218097
-236719
207029
-224820
196506
-213511
186499
-202763
177007
-192563
167972
-182865
159407
-173670
151270
-164918
143545
-156611
136187
-148718
129212
-141224
122576
-134101
116278
-127347
110288
-120920
104607
-114818
99205.2
-109027
94053.1
-103518
89180.1
-98304.2
84556.5
-93342.6
80153.1
-88618
75955.1
-84145.1
71984.5
-79901.5
68211.8
-75859.5
64622.4
-72026.2
61211.7
-68385.3
57969.6
-64927.9
54888.6
-61645.1
51961.3
-58526.6
49177.6
-55566.3
46532.9
-52753.9
44018.5
-50084.8
41630
-47550.3
39358.6
-45142.8
37199.8
-42856.4
35146.5
-40685.2
33197
-38626.1
31342.7
-36667.3
29579.1
-34808.8
27902.1
-33043.1
26309.9
-31368.7
24795.4
-29776.7
23354.3
-28265.6
21985
-26831
20684.8
-25468.4
19447.7
-24174.8
18269.5
-22944.4
17151.6
-21778.5
16086.7
-20669.8
15076.4
-19618.2
14116.3
-18619.3
13202
-17668.8
12332.3
-16768
11506.9
-15912.5
10723
-15099.4
9976.45
-14327.3
9267.09
-13594.5
8593.55
-12898.4
7952.94
-12237.3
7345.18
-11609.9
6767.47
-11013.3
6218.9
-10447.9
5696.69
-9910.68
5201.16
-9400.72
4730.73
-8917.19
4283.97
-8458.54
3859.85
-8023.62
3457.07
-7611.78
3074.99
-7222.3
2712.19
-6854.16
2367.92
-6507.36
2041.35
-6182.27
1731.58
-5878.07
1437.49
-5598.99
1158.99
-5340.59
894.813
-5124.79
645.089
-4919.43
412.592
-4831.85
187.723
-4693.4
-4994.76
386036
-375631
366540
-356784
348041
-338917
330451
-321916
313744
-305762
297874
-290431
282799
-275849
268475
-261988
254858
-248819
241933
-236314
229656
-224442
217983
-213147
206900
-202427
196375
-192239
186367
-182554
176874
-173372
167837
-164633
159256
-156338
151118
-148472
143376
-140976
136017
-133865
129041
-127124
122402
-120709
116102
-114620
110111
-108827
104414
-103330
99024.9
-98128.7
93885.7
-93165.1
88996.3
-88453.2
84356.5
-83978.2
79958.8
-79747.4
75768
-75710.8
71790
-71881.5
68008.5
-68244.7
64416.1
-64792.9
61002.6
-61514.4
57757.7
-58400.2
54673.9
-55442.8
51744
-52636.4
48959.2
-49969
46313.4
-47439.1
43796.6
-45033.5
41405.8
-42752
39132.1
-40582.8
36972.6
-38525.8
34918.6
-36572.1
32965.8
-34714.4
31111
-32954
29348.6
-31280.7
27671.2
-29691.3
26077.4
-28182.9
24561.5
-26749.7
23120.3
-25389.9
21751.2
-24099.3
20448.2
-22871.9
19211.3
-21707.6
18034.9
-20602
16915.9
-19550.8
15852.9
-18555.2
14841.7
-17608
13880.7
-16707.8
12967.1
-15854.3
12099.3
-15044.7
11274.7
-14274.7
10490.1
-13542.7
9744.34
-12848.7
9035.8
-12189.9
8363
-11564.5
7723.24
-10970.1
7115.24
-10405.3
6537.57
-9870.26
5989.07
-9362.18
5468.25
-8879.91
4973.43
-8422.37
4503.56
-7988.67
4057.44
-7577.5
3633.91
-7188.25
3231.65
-6820.03
2849.86
-6472.37
2487.49
-6144.99
2143.29
-5838.07
1816.66
-5551.44
1506.25
-5288.58
1211.72
-5046.06
931.251
-4844.33
665.54
-4653.72
414.011
-4580.32
172.759
-4452.15
-4822
404441
-354138
384048
-336391
364651
-319520
346237
-303502
328735
-288260
312100
-273796
296303
-260052
281302
-246986
267036
-234554
253506
-222784
240625
-211561
228406
-200928
216791
-190812
205765
-181213
195284
-172073
185333
-163421
175868
-155168
166889
-147359
158351
-139934
150241
-132865
142542
-126166
135225
-119808
128262
-113746
121666
-108024
115394
-102554
109431
-97366.2
103761
-92459.2
98370.9
-87774.7
93259.6
-83341.8
88415.5
-79134.1
83793.2
-75125.1
79405.8
-71323.3
75237
-67712.7
71276.6
-64284.3
67512.8
-61029.1
63935.3
-57936.9
60536.7
-55001.6
57306.7
-52212.8
54236.4
-49566.2
51320.1
-47052.7
48547.5
-44666.5
45912.6
-42398.6
43406.6
-40246
41028.2
-38204.3
38765.5
-36263.1
36612.8
-34419.4
34570
-32671.6
32626.9
-31010.9
30779.2
-29432.9
29023.8
-27935.9
27353.6
-26512.7
25768.5
-25164.5
24259.8
-23881.2
22826.1
-22665.5
21462.9
-21508.7
20167.4
-20412.1
18935.3
-19369.9
17765
-18380.5
16652.2
-17442.5
15592.7
-16548.5
14587.8
-15702.9
13633.1
-14899.7
12723.1
-14134.7
11859
-13410.6
11039.3
-12723.1
10259.9
-12069.3
9517.77
-11447.8
8812.99
-10859.8
8144.06
-10301.2
7508.83
-9770.04
6904.83
-9266.25
6331.01
-8788.36
5785.79
-8334.69
5268.25
-7904.83
4776.52
-7496.94
4309.56
-7110.54
3866.17
-6744.86
3445.17
-6399.03
3045.45
-6072.66
2665.96
-5765.49
2305.43
-5477.54
1962.96
-5208.97
1637.5
-4963.12
1328.33
-4736.89
1033.4
-4549.4
753.758
-4374.07
486.668
-4313.23
231.857
-4197.34
-4590.14
421827
-331763
400537
-315100
380331
-299314
361108
-284280
342870
-270022
325528
-256454
309040
-243564
293390
-231336
278535
-219698
264401
-208650
250988
-198149
238239
-188178
226122
-178696
214609
-169701
203686
-161149
193307
-153042
183443
-145304
174080
-137995
165173
-131027
156722
-124415
148684
-118128
141042
-112167
133798
-106502
126907
-101133
120354
-96001.5
114154
-91166
108233
-86538.4
102621
-82162.4
97293.5
-78014.6
92219
-74059.6
87404.4
-70310.5
82827.8
-66746.7
78481.6
-63366.6
74351.1
-60153.8
70424.7
-57102.7
66694.9
-54207.1
63150
-51456.6
59782.5
-48845.4
56580.8
-46364.4
53538.9
-44010.8
50646.6
-41774.2
47899.5
-39651.5
45288.8
-37635.3
42805.6
-35721.1
40445.6
-33903.1
38204.4
-32178.2
36073.2
-30540.4
34046.1
-28983.9
32120.3
-27507.1
30289.9
-26105.5
28552
-24774.8
26896.3
-23508.9
25325.9
-22310.7
23830.4
-21170.1
22410
-20088.3
21060.2
-19062.3
19776.7
-18086.4
18556.6
-17160.4
17395.5
-16281.4
16294.9
-15447.9
15247.5
-14655.5
14250.5
-13902.7
13305.2
-13189.4
12404.5
-12509.9
11549.8
-11868.3
10736.8
-11256.3
9965.35
-10676.3
9231.27
-10125.7
8533.66
-9603.59
7871.25
-9107.63
7241.96
-8636.96
6644.01
-8190.41
6076.34
-7767.02
5536.83
-7365.32
5024.54
-6984.65
4538.01
-6624.01
4075.89
-6282.74
3637.11
-5960.25
3220.41
-5655.96
2824.36
-5369.44
2448.36
-5101.54
2090.86
-4851.47
1750.76
-4623.02
1427.46
-4413.59
1118.44
-4240.39
824.948
-4080.58
542.591
-4030.88
273.179
-3927.92
-4316.96
438078
-308490
415993
-293015
394978
-278299
375034
-264336
356075
-251062
338071
-238450
320964
-226457
304711
-215083
289266
-204254
274587
-193971
260659
-184220
247408
-174927
234834
-166122
222894
-157760
211542
-149798
200750
-142249
190517
-135071
180770
-128248
171523
-121781
162733
-115624
154399
-109794
146477
-104244
138937
-98962
131765
-93961
124976
-89211.9
118510
-84700
112382
-80410.4
106557
-76337.2
101011
-72468.7
95746.9
-68795.8
90744.5
-65308.1
85993.3
-61995.5
81477
-58850.3
77185.6
-55862.3
73108.3
-53025.4
69235.1
-50333.9
65552.7
-47774.2
62053.7
-45346.4
58729.3
-43040.1
55569.3
-40850.8
52566.2
-38771.1
49712.8
-36798
47000.2
-34922.7
44422.6
-33143.5
41974.1
-31454.6
39645.9
-29850
37432.1
-28326.7
35328.5
-26880.3
33329.1
-25507.7
31429.5
-24206
29622.5
-22967.7
27906.5
-21793
26272.9
-20677.2
24721.7
-19618.8
23248.4
-18615
21845.9
-17659.7
20514
-16754.5
19247
-15893.4
18044.9
-15079.3
16900.5
-14303.4
15812.2
-13567.2
14778.7
-12869.1
13795.5
-12206.3
12864.1
-11578.5
11976
-10980.2
11132.4
-10412.7
10331.8
-9875.78
9570.94
-9364.8
8847.55
-8880.2
8160.31
-8420.39
7507.44
-7984.09
6887.25
-7570.22
6298.1
-7177.88
5738.52
-6805.75
5206.91
-6453.03
4702.17
-6119.28
4222.82
-5803.39
3767.37
-5504.8
3334.71
-5223.29
2923.91
-4958.65
2533.16
-4710.79
2161.8
-4480.1
1808.04
-4269.26
1471.19
-4076.74
1148.62
-3917.82
841
-3772.96
542
-3731.88
256.561
-3642.49
-4060.4
453222
-284437
430343
-270136
408637
-256593
388002
-243701
368380
-231441
349758
-219828
332063
-208761
315235
-198255
299260
-188279
284095
-178806
269666
-169791
255972
-161234
242971
-153120
230603
-145392
218853
-138048
207692
-131088
197090
-124470
187033
-118191
177461
-112209
168376
-106539
159746
-101164
151529
-96026.9
143752
-91185.7
136344
-86552.5
129318
-82185.7
122630
-78012.1
116279
-74059.2
110245
-70303.6
104513
-66736.3
99066.9
-63350
93893
-60134.2
88976.2
-57078.6
84303.1
-54177.3
79865
-51424.2
75647.2
-48807.7
71638
-46324.6
67829.8
-43966
64211.1
-41727.6
60771.3
-39600.4
57501.9
-37581.4
54396.8
-35666
51444.4
-33845.6
48638.7
-32117
45972.5
-30477.3
43438.3
-28920.4
41029
-27440.6
38740
-26037.7
36565.5
-24705.8
34498.3
-23440.4
32532.4
-22240.1
30663.6
-21098.9
28888.7
-20018.1
27200.7
-18989.1
25597.9
-18016.1
24071.8
-17088.8
22623.7
-16211.6
21244.9
-15375.7
19936.8
-14585.3
18692.2
-13834.7
17508.3
-13119.5
16384.9
-12443.8
15317.6
-11801.9
14302.3
-11190.9
13336
-10612.2
12419.9
-10064.2
11548.8
-9541.57
10720.4
-9047.3
9933.54
-8577.98
9186.09
-8132.74
8475.83
-7710.12
7801.16
-7309.42
7160.3
-6929.36
6551.38
-6568.95
5973.03
-6227.4
5423.79
-5903.8
4902.03
-5597.51
4406.51
-5307.88
3935.86
-5034.15
3488.7
-4776.13
3063.73
-4533.68
2659.82
-4306.88
2275.66
-4095.95
1909.74
-3903.34
1560.99
-3727.99
1226.53
-3583.36
907.3
-3453.73
594.728
-3419.3
296.614
-3344.37
-3763.79
467158
-259649
443602
-246580
421204
-234196
399937
-222434
379742
-211246
360531
-200618
342291
-190521
324962
-180926
308502
-171819
292851
-163155
277994
-154934
263888
-147128
250459
-139692
237722
-132655
225618
-125944
214118
-119588
203206
-113558
192809
-107795
182957
-102357
173591
-97172.3
164681
-92253.9
156242
-87587.5
148199
-83143.6
140584
-78936.9
133318
-74920.3
126432
-71126
119887
-67514.2
113669
-64085
107762
-60829.4
102149
-57737
96813.5
-54799
91745.6
-52010.7
86930.5
-49362.2
82354.8
-46848.6
78008.2
-44461.1
73876.1
-42192.4
69949.5
-40039.5
66218.3
-37996.3
62673.5
-36055.6
59306.3
-34214.2
56103.6
-32463.3
53061
-30802.9
50169.5
-29225.6
47421.9
-27729.7
44809.5
-26308
42329.1
-24960.3
39969.2
-23677.8
37726.9
-22463.4
35596.2
-21309.7
33571.3
-20215.2
31646.3
-19173.9
29815.5
-18187.3
28078.8
-17252.4
26424.6
-16361.9
24854.2
-15518.5
23360.5
-14717.9
21942
-13957.2
20592.8
-13236.2
19310.1
-12552
18093.7
-11903.1
16935.1
-11285.2
15834.2
-10701
14788.1
-10144.8
13795.2
-9619.36
12849.2
-9118.15
11952.2
-8644.56
11099.4
-8194.5
10289
-7767.62
9519.07
-7362.78
8787.61
-6978.67
8092.61
-6614.43
7432.44
-6269.18
6805.36
-5941.87
6209.6
-5631.65
5643.93
-5338.13
5106.47
-5060.05
4595.97
-4797.37
4111.04
-4549.22
3650.38
-4315.47
3212.44
-4095.74
2796.21
-3890.64
2400.06
-3699.8
2022.5
-3525.77
1662.47
-3367.97