/*--------------------------------*- C++ -*----------------------------------*\
  =========                 |
  \\      /  F ield         | OpenFOAM: The Open Source CFD Toolbox
   \\    /   O peration     | Website:  https://openfoam.org
    \\  /    A nd           | Version:  11
     \\/     M anipulation  |
\*---------------------------------------------------------------------------*/
FoamFile
{
    format      ascii;
    class       surfaceScalarField;
    location    "150";
    object      phi;
}
// * * * * * * * * * * * * * * * * * * * * * * * * * * * * * * * * * * * * * //

dimensions      [0 3 -1 0 0 0 0];

internalField   nonuniform List<scalar> 
62845
(
422579
-1.89625e+06
1.90728e+06
397196
-1.8042e+06
1.82958e+06
379680
-1.71352e+06
1.73103e+06
360104
-1.62723e+06
1.64681e+06
342451
-1.54514e+06
1.5628e+06
325038
-1.46712e+06
1.48453e+06
308820
-1.39277e+06
1.40898e+06
293248
-1.32209e+06
1.33766e+06
278481
-1.25487e+06
1.26964e+06
264417
-1.19101e+06
1.20508e+06
251105
-1.13036e+06
1.14367e+06
238490
-1.07272e+06
1.08534e+06
226419
-1.0179e+06
1.02998e+06
215067
-965956
977308
204167
-916473
927373
193953
-869611
879825
184155
-824961
834759
174860
-782677
791972
166100
-742503
751262
157763
-704288
712625
149784
-668028
676007
142299
-633672
641157
135147
-600915
608068
128364
-569908
576690
121940
-540445
546869
115814
-512426
518552
110025
-485897
491686
104515
-460657
466168
99321.5
-436753
441946
94288.4
-413935
418968
89606.3
-392399
397081
85117.5
-371893
376382
80863.3
-352466
356720
76837.1
-333967
337994
72982.9
-316444
320299
69342.9
-299796
303436
65861.2
-284018
287500
62581.7
-269014
272294
59449.3
-254775
257907
56468.6
-241268
244249
53634.4
-228449
231284
50942
-216282
218974
48377
-204729
207294
45940
-193770
196207
43617.4
-183364
185686
41409.8
-173489
175696
39299.5
-164115
166225
37297.3
-155225
157227
35385.7
-146779
148690
33566.4
-138770
140589
31831.8
-131163
132898
30179
-123947
125600
28596.5
-117092
118674
27095.3
-110594
112096
25659.4
-104421
105857
24286.7
-98556.4
99929
22979.6
-92997.6
94304.7
21727.2
-87715.7
88968.1
20536.4
-82699.6
83890.4
19396.6
-77938.4
79078.2
18306
-73416.6
74507.1
17263.1
-69118.9
70161.8
16266.2
-65039.1
66035.9
15313.9
-61161.8
62114.1
14400.4
-57476.5
58390
13528.5
-53972.5
54844.4
12688.5
-50639.3
51479.2
11883.5
-47470.6
48275.6
11115.9
-44459.6
45227.1
10376.5
-41584.1
42323.4
9664.31
-38849.6
39561.8
8981.79
-36241.8
36924.3
8327.69
-33757.8
34411.8
7693.46
-31379.9
32014.1
7085.05
-29108.9
29717.3
6494.86
-26936.8
27527
5925.15
-24853.2
25422.9
5373.23
-22853
23405
4837.38
-20927.6
21463.5
4315.84
-19070.4
19591.9
3806.93
-17273.3
17782.2
3308.89
-15528.6
16026.6
2820.22
-13828
14316.7
2338.93
-12163.6
12644.9
1863.37
-10525.8
11001.4
1394.69
-8910.09
9378.79
927.947
-7302.54
7769.29
487.123
-5727.98
6168.75
-4132.94
4620.03
513968
-1.8727e+06
488175
-1.77841e+06
464089
-1.68943e+06
440971
-1.60411e+06
418888
-1.52306e+06
397776
-1.44601e+06
377758
-1.37275e+06
358699
-1.30303e+06
340568
-1.23674e+06
323385
-1.17383e+06
307035
-1.11401e+06
291497
-1.05719e+06
276804
-1.00321e+06
262783
-951935
249520
-903210
236893
-856984
224939
-813007
213538
-771277
202728
-731692
192492
-694052
182817
-658353
173538
-624393
164794
-592172
156422
-561536
148511
-532534
141050
-504965
133929
-478775
127136
-453865
120663
-430281
114602
-407874
108842
-386639
103328
-366379
98051.2
-347189
93102.2
-329018
88376.2
-311718
83915.1
-295335
79664.8
-279768
75617.7
-264967
71753.9
-250911
68101.8
-237616
64623.2
-224971
61317.6
-212976
58174.6
-201586
55181.7
-190777
52333
-180515
49625.9
-170782
47051.2
-161540
44596.2
-152770
42262.2
-144445
40036.4
-136544
37920.8
-129048
35902.9
-121929
33984.9
-115174
32150.2
-108760
30401.2
-102672
28740
-96895.1
27150.8
-91408.4
25635.9
-86200.9
24189.2
-81252.9
22808.6
-76557.8
21492.2
-72100.3
20234.1
-67860.8
19036.7
-63841.7
17885.7
-60010.8
16788.1
-56378.9
15742.2
-52926.6
14742.4
-49639.6
13783.3
-46511.5
12863.5
-43539.8
11981.8
-40702.4
11140.6
-38008.5
10334.7
-35435.9
9555.36
-32978.4
8808.75
-30633.3
8093.42
-28393.6
7403.38
-26246.8
6737.66
-24187.5
6094.86
-22210.3
5472.87
-20305.7
4869.87
-18467.4
4283.88
-16687.4
3712.97
-14957.7
3154.88
-13269.9
2608.03
-11616.8
2070.18
-9987.95
1541.51
-8381.42
1019.8
-6780.82
520.565
-5228.8
-3612.46
606902
-1.84155e+06
576846
-1.74835e+06
547977
-1.66056e+06
520504
-1.57664e+06
494377
-1.49693e+06
469452
-1.42108e+06
445734
-1.34903e+06
423212
-1.28051e+06
401815
-1.21534e+06
381467
-1.15348e+06
362158
-1.0947e+06
343814
-1.03884e+06
326419
-985815
309849
-935366
294138
-887499
279219
-842065
265073
-798861
251684
-757889
238888
-718896
226767
-681931
215208
-646794
204300
-613485
193927
-581799
184129
-551737
174741
-523147
165856
-496079
157411
-470330
149446
-445900
141853
-422688
134622
-400642
127695
-379712
121212
-359895
115067
-341044
109154
-323105
103612
-306177
98288.1
-290010
93225.5
-274705
88425.9
-260168
83899.8
-246385
79568.9
-233285
75460.2
-220862
71549.6
-209066
67829.2
-197866
64297.5
-187245
60936.8
-177154
57738.7
-167584
54698.7
-158500
51803.7
-149875
49049.8
-141691
46425.5
-133920
43926.9
-126549
41551.3
-119554
39286.4
-112909
37134.5
-106608
35079
-100617
33122.3
-94938.5
31261.9
-89548
29482.4
-84421.4
27790.2
-79560.8
26179.3
-74946.9
24634.4
-70555.3
23166.7
-66393.2
21761.6
-62436.6
20430.2
-58679.4
19153.8
-55102.5
17931.1
-51703.9
16764.5
-48473
15652.4
-45399.4
14585.6
-42473
13570.3
-39687
12597.3
-37035.5
11661.5
-34500.1
10768.9
-32085.9
9914.46
-29778.8
9089.88
-27569
8298.8
-25455.7
7539.01
-23427.7
6806.61
-21477.9
6100.07
-19599.1
5417.38
-17784.7
4755.63
-16025.6
4113.04
-14315.1
3487.13
-12644
2875.81
-11005.5
2276.93
-9389.06
1689.44
-7793.92
1113.7
-6205.05
558.615
-4673.72
-3053.81
698928
-1.80472e+06
663944
-1.71337e+06
630523
-1.62714e+06
598815
-1.54493e+06
568542
-1.46666e+06
539855
-1.39239e+06
512575
-1.32175e+06
486597
-1.25453e+06
461996
-1.19074e+06
438568
-1.13005e+06
416319
-1.07245e+06
395240
-1.01776e+06
375111
-965685
356113
-916367
338024
-869410
320879
-824920
304559
-782540
289047
-742377
274378
-704227
260438
-667991
247162
-633518
234585
-600908
222645
-569859
211280
-540372
200529
-512396
190280
-485829
180571
-460622
171344
-436673
162589
-413933
154246
-392299
146358
-371824
138867
-352404
131713
-333890
124940
-316333
118491
-299728
112409
-283928
106587
-268884
101072
-254652
95826
-241139
90847.6
-228307
86109.2
-216124
81604.7
-204561
77329.1
-193590
73254.5
-183171
69387.2
-173287
65710.5
-163907
62207.8
-154998
58880.6
-146548
55711.6
-138522
52700.2
-130909
49836.1
-123685
47104.9
-116822
44510.1
-110314
42034.1
-104132
39683.7
-98266.4
37438.3
-92693
35300
-87409.8
33270.9
-82392.3
31331.2
-77621.1
29483
-73098.7
27728.8
-68801.2
26049.2
-64713.7
24451.2
-60838.6
22919.9
-57148.2
21466.7
-53649.2
20081
-50318.2
18757.2
-47149.2
17489.9
-44132.2
16285.2
-41268.4
15130.2
-38532
14026.8
-35932.1
12973.8
-33447.1
11962.1
-31074.2
10994
-28810.8
10070.3
-26645.2
9182.7
-24568.2
8329.91
-22574.9
7510.31
-20658.3
6721.25
-18810.1
5960.06
-17023.5
5224.84
-15290.4
4512.22
-13602.5
3820.4
-11952.2
3146.29
-10331.3
2487.73
-8730.51
1843.27
-7149.46
1213.2
-5574.97
601.398
-4061.97
-2452.46
788934
-1.76277e+06
749249
-1.67369e+06
711402
-1.58929e+06
675480
-1.50901e+06
641400
-1.43258e+06
608905
-1.3599e+06
578044
-1.29089e+06
548793
-1.22528e+06
520974
-1.16292e+06
494567
-1.10365e+06
469507
-1.04739e+06
445615
-993872
423021
-943092
401514
-894860
381114
-849010
361712
-805517
343334
-764162
325865
-724908
309240
-687602
293494
-652245
278562
-618586
264330
-586676
250836
-556365
238067
-527603
225910
-500240
214356
-474275
203394
-449660
192964
-426243
183055
-404024
173660
-382904
164769
-362933
156223
-343859
148217
-325884
140591
-308706
133290
-292427
126357
-276995
119833
-262361
113600
-248419
107682
-235220
102053
-222678
96702.8
-210774
91622.8
-199481
86792.1
-188759
82201.6
-178580
77832.9
-168918
73681.2
-159755
69734.3
-151051
65978
-142791
62408
-134952
59013.3
-127514
55779.7
-120451
52705.4
-113748
49776.6
-107385
46996.2
-101351
44342.8
-95613.1
41823.3
-90173.6
39421.4
-85007.9
37130.3
-80101.2
34956.5
-75447.3
32880.3
-71022.5
30904
-66824.8
29021.1
-62830.8
27225.5
-59043
25515.4
-55438
23884.5
-52018.3
22327.1
-48760.8
20845.5
-45667.7
19433.9
-42720.5
18078.7
-39913.2
16790.2
-37243.5
15558.9
-34700.9
14379.4
-32267.6
13257.7
-29952.5
12181.2
-27734.2
11150.2
-25614.3
10162.4
-23580.3
9215.51
-21628
8305.61
-19748.4
7431.16
-17935.6
6588.67
-16181
5775.23
-14477
4988.38
-12815.6
4224.96
-11188.8
3482.05
-9588.42
2756.84
-8005.29
2046.75
-6439.36
1353.05
-4881.23
672.762
-3381.68
-1779.65
876750
-1.71605e+06
832461
-1.6294e+06
790402
-1.54724e+06
750388
-1.469e+06
712425
-1.39462e+06
676360
-1.32383e+06
642095
-1.25662e+06
609546
-1.19273e+06
578582
-1.13196e+06
549227
-1.07429e+06
521327
-1.01949e+06
494898
-967443
469714
-917907
445861
-871008
423179
-826329
401632
-783970
381159
-743689
361755
-705505
343335
-669182
325798
-634708
309174
-601961
293401
-570903
278414
-541378
264152
-513341
250603
-486691
237806
-461478
225551
-437404
213976
-414668
202973
-393022
192583
-372514
182598
-352947
173258
-334519
164256
-316882
155735
-300186
147688
-284380
140009
-269316
132690
-255042
125781
-241510
119192
-228631
112937
-216423
106996
-204833
101344
-193829
95972.4
-183387
90870.5
-173478
86019.9
-164068
81403.1
-155138
77019.7
-146667
72851.1
-138623
68886.3
-130987
65110.9
-123738
61525
-116865
58113.9
-110337
54865
-104136
51774.7
-98261.1
48839.4
-92677.8
46039.7
-87373.9
43376.8
-82345
40844.4
-77568.7
38430.7
-73033.7
36133.6
-68725.5
33942.1
-64633.4
31863.1
-60751.8
29876.9
-57056.9
27990.4
-53551.5
26184.6
-50212.6
24470.4
-47046.6
22829.4
-44026.7
21268
-41159.2
19780.5
-38425.7
18361.1
-35824.1
17000.6
-33340.3
15708.7
-30975.7
14472.3
-28716.2
13289.9
-26551.8
12156.8
-24481.2
11073.5
-22497.1
10035.7
-20590.2
9040.21
-18752.9
8083.94
-16979.3
7163.86
-15260.9
6276.86
-13590
5419.71
-11958.5
4589.25
-10358.3
3781.71
-8780.89
2993.94
-7217.53
2222.71
-5668.13
1467.81
-4126.31
719.672
-2633.59
-1060.04
962051
-1.66484e+06
913350
-1.5807e+06
867101
-1.50099e+06
823252
-1.42515e+06
781489
-1.35286e+06
741913
-1.28426e+06
704273
-1.21898e+06
668547
-1.157e+06
634668
-1.09808e+06
602404
-1.04203e+06
571827
-988916
542725
-938341
515133
-890316
488914
-844788
464051
-801466
440384
-760303
417947
-721252
396603
-684160
376371
-648951
357154
-615490
338954
-583761
321599
-553548
305132
-524912
289490
-497699
274660
-471861
260531
-447349
247142
-424015
234434
-401960
222347
-380935
210871
-361038
199999
-342075
189622
-324142
179783
-307043
170474
-290876
161588
-275494
153169
-260896
145166
-247039
137543
-233887
130318
-221406
123453
-209558
116925
-198305
110722
-187625
104829
-177495
99225.9
-167875
93899
-158741
88839.1
-150079
84023.8
-141852
79448.7
-134048
75096.1
-126635
70961.6
-119604
67024.7
-112929
63286.6
-106599
59728.6
-100578
56344.5
-94877.1
53122.4
-89455.7
50059.5
-84311
47144
-79429.4
44368.5
-74793.3
41726.7
-70392
39216.3
-66215.1
36825.7
-62242.8
34544.6
-58470.7
32375.2
-54887.5
30311.1
-51487.4
28346.1
-48247.6
26465.7
-45166.2
24684.8
-42245.8
22980.9
-39455.3
21360.4
-36805.3
19809.6
-34273.3
18338.5
-31869.3
16926.3
-29563.5
15582.5
-27372.4
14297.5
-25266.8
13071.6
-23255.3
11898.6
-21324.1
10775.2
-19466.8
9699.59
-17677.3
8667.06
-15946.8
7675.36
-14269.2
6720.77
-12635.4
5799.87
-11037.6
4908.79
-9467.25
4044.1
-7916.19
3201.09
-6374.5
2376.11
-4843.12
1564.58
-3314.73
745.369
-1814.39
-314.6
1.04469e+06
-1.60922e+06
991824
-1.52783e+06
941598
-1.45076e+06
893848
-1.3774e+06
848570
-1.30758e+06
805547
-1.24124e+06
764670
-1.17811e+06
725853
-1.11818e+06
688984
-1.06121e+06
653975
-1.00702e+06
620716
-955657
589169
-906794
559217
-860364
530699
-816270
503635
-774402
478017
-734684
453618
-696854
430481
-661023
408474
-626943
387602
-594619
367736
-563895
348919
-534731
331040
-507033
314025
-480684
297925
-455761
282574
-431998
268062
-409504
254229
-388127
241115
-367821
228663
-348586
216813
-330225
205557
-312886
194887
-296373
184747
-280736
175080
-265827
165928
-251745
157231
-238342
148968
-225624
141113
-213552
133647
-202091
126558
-191216
119819
-180887
113418
-171093
107327
-161785
101547
-152960
96048.9
-144581
90819.4
-136623
85849.8
-129078
81131.7
-121917
76638.9
-115111
72372.3
-108662
68303.1
-102530
64445.4
-96720.6
60771.2
-91202.9
57278.7
-85963.2
53959.4
-80991.8
50796.9
-76266.9
47790.2
-71786.6
44927.5
-67529.2
42205.6
-63493.2
39614.3
-59651.6
37146.2
-56002.6
34799.9
-52541.1
32564.5
-49252
30433.6
-46116.7
28409.8
-43142.5
26478.4
-40314.4
24641.9
-37618.8
22886.3
-35049.6
21221.6
-32608.6
19626.4
-30274.1
18110.6
-28047.6
16661.2
-25923
15281
-23886.6
13961.7
-21936
12701
-20063.5
11496.1
-18261.9
10342.1
-16523.3
9237.39
-14842.1
8176.62
-13208.5
7157.6
-11616.4
6175.87
-10055.8
5227.37
-8518.77
4307.91
-6996.74
3412.84
-5479.45
2537.6
-3967.88
1670.2
-2447.3
785.879
-930.155
471.179
1.12436e+06
-1.54931e+06
1.06749e+06
-1.47096e+06
1.01344e+06
-1.39671e+06
962110
-1.32607e+06
913377
-1.25885e+06
867005
-1.19487e+06
823076
-1.13418e+06
781262
-1.07637e+06
741568
-1.02152e+06
703957
-969407
668114
-919814
634148
-872828
601875
-828091
571227
-785623
542132
-745306
514477
-707030
488241
-670618
463306
-636088
439662
-603300
417136
-572092
395818
-542577
375499
-514413
356257
-487790
337991
-462418
320583
-438353
304117
-415533
288441
-393828
273592
-373278
259412
-353641
245990
-335165
233269
-317503
221141
-300758
209597
-284830
198682
-269821
188337
-255481
178448
-241856
169078
-228971
160175
-216721
151719
-205096
143681
-194053
136045
-183581
128792
-173633
121891
-164193
115341
-155234
109110
-146729
103186
-138657
97564
-131000
92213.7
-123728
87127.8
-116831
82296
-110279
77699.4
-104065
73332.3
-98162.8
69174.2
-92562.5
65225.1
-87253.7
61466.1
-82204.2
57887.3
-77413
54490.1
-72869.8
51257
-68553.4
48181.2
-64453.5
45253
-60565
42469.1
-56867.6
39818.8
-53352.3
37295.2
-50017.6
34892.1
-46848.9
32611.7
-43836.4
30435.1
-40965.8
28360.6
-38239.9
26386.2
-35644.3
24509.6
-33173.1
22717.4
-30816.4
21011.6
-28568.2
19386.3
-26422.3
17832.2
-24368.9
16351.7
-22406.1
14939.1
-20523.3
13589.4
-18713.8
12299.6
-16972.1
11065.9
-15289.6
9883.87
-13660.1
8750.82
-12075.4
7661.82
-10527.4
6613.17
-9007.19
5600.43
-7506.01
4618.77
-6015.06
3662.73
-4523.39
2726.47
-3031.58
1794.05
-1514.81
885.76
-21.9003
1357.01
1.20111e+06
-1.48537e+06
1.14037e+06
-1.41021e+06
1.08265e+06
-1.33898e+06
1.02778e+06
-1.2712e+06
975687
-1.20676e+06
926210
-1.14539e+06
879208
-1.08718e+06
834608
-1.03177e+06
792197
-979106
751930
-929140
713756
-881640
677388
-836460
642913
-793615
610205
-752914
579102
-714203
549523
-677451
521517
-642612
494858
-609429
469580
-578022
445574
-548086
422721
-519724
401056
-492748
380478
-467212
360912
-442852
342400
-419840
324738
-397871
308009
-377098
292055
-357324
277015
-338601
262633
-320782
248999
-303870
236056
-287815
223796
-272570
212062
-258088
200950
-244369
190448
-231354
180429
-218952
170917
-207209
161871
-196051
153281
-185463
145117
-175417
137360
-165876
129991
-156824
122989
-148232
116333
-140073
110010
-132335
103996
-124986
98280.4
-118012
92846
-111396
87684.1
-105117
82772.8
-99154.1
78102.8
-93492.7
73669.2
-88128.9
69447.6
-83032.1
65432.2
-78188.9
61619.1
-73599.9
57992.4
-69243.1
54535.4
-65096.4
51257.1
-61175.1
48128.6
-57436.5
45155.6
-53894.6
42334.4
-50531.2
39645.4
-47328.6
37082
-44285.5
34646.2
-41400.5
32328.3
-38647.9
30121.5
-36033.1
28020
-33542.8
26017.8
-31170.9
24108.9
-28907.5
22291.6
-26751
20560.1
-24690.8
18912.1
-22720.9
17338.5
-20832.6
15837.1
-19021.9
14404.2
-17280.9
13034.8
-15602.7
11726
-13980.8
10473.3
-12407.3
9272.13
-10874.3
8118.84
-9374.09
7009.05
-7897.41
5937.79
-6434.76
4899.61
-4976.9
3888.25
-3512.04
2897.27
-2040.59
1910
-527.513
964.739
923.244
2321.66
1.27455e+06
-1.41758e+06
1.21015e+06
-1.34582e+06
1.14888e+06
-1.27772e+06
1.09071e+06
-1.21303e+06
1.03542e+06
-1.15146e+06
982911
-1.09288e+06
933026
-1.03729e+06
885631
-984376
840714
-934189
797942
-886369
757346
-841044
718850
-797964
682242
-757007
647439
-718112
614441
-681205
583122
-646132
553356
-612846
525084
-581157
498196
-551134
472719
-522608
448499
-495505
425513
-469762
403594
-445292
382897
-422156
363149
-400092
344449
-379171
326673
-359323
309817
-340468
293732
-322516
278498
-305548
264009
-289382
250260
-274065
237240
-259551
224845
-245693
213063
-232587
201849
-220139
191213
-208317
181108
-197104
171507
-186450
162391
-176346
153720
-166747
145489
-157645
137659
-148994
130221
-140795
123157
-133008
116443
-125621
110060
-118603
103993
-111946
98229
-105632
92745.3
-99633.7
87536.3
-93945.1
82584.9
-88541.4
77876.7
-83420.7
73396.8
-78552.1
69140.8
-73933
65093
-69552.1
61240.9
-65391
57589.1
-61444.6
54102.8
-57688.8
50794.1
-54127.9
47643.1
-50743.6
44645.3
-47533.4
41798.1
-44481.5
39091.7
-41579
36504.7
-38813.6
34053.1
-36196.3
31718.1
-33698.2
29493.6
-31318.3
27373.6
-29050.9
25360.2
-26894.1
23443.3
-24834
21617.3
-22864.8
19872.9
-20976.5
18213.2
-19172.9
16630.2
-17439
15120.6
-15771.3
13679.4
-14161.5
12302.8
-12604.2
10986.2
-11090.7
9725.82
-9613.9
8517.23
-8165.49
7355.14
-6735.32
6234.97
-5314.57
5151.06
-3892.98
4095.97
-2456.93
3061.38
-1005.95
2035.1
498.826
1045.73
1912.61
3367.45
1.34461e+06
-1.34602e+06
1.27663e+06
-1.27784e+06
1.21207e+06
-1.21317e+06
1.15069e+06
-1.15165e+06
1.09236e+06
-1.09313e+06
1.03702e+06
-1.03754e+06
984375
-984645
934419
-934420
886919
-886689
841860
-841309
799020
-798204
758378
-757322
719756
-718385
683096
-681451
648263
-646372
615155
-613024
583704
-581396
553895
-551348
525551
-522790
498627
-495685
473035
-469912
448787
-445514
425759
-422264
403841
-400238
383017
-379268
363278
-359432
344522
-340567
326632
-322579
309755
-305638
293675
-289468
278389
-274096
263890
-259565
250069
-245730
236990
-232613
224551
-220147
212731
-208319
201510
-197096
190842
-186436
180706
-176314
171079
-166720
161930
-157597
153234
-148949
144983
-140743
137133
-132945
129670
-125545
122581
-118531
115846
-111868
109444
-105544
103361
-99548.6
97579
-93852
92076.3
-88442.4
86853
-83318.1
81884.6
-78452.4
77161.3
-73828.8
72674.6
-69446.3
68408
-65285.4
64348.5
-61331.6
60486.3
-57582.3
56817.6
-54020.2
53331.3
-50641.5
50015.9
-47428.2
46858
-44375.5
43855.1
-41478.6
40996
-38719.9
38286
-36103.5
35699.2
-33609.6
33237.5
-31236.4
30900.1
-28980.9
28676.3
-26827.1
26556.2
-24774
24537.9
-22815.7
22617.1
-20944
20790.2
-19149.7
19048.4
-17431
17389
-15779.6
15806.3
-14188.6
14297.2
-12652.4
12856.8
-11163.8
11480.8
-9714.76
10164.9
-8297.95
8904
-6904.61
7694.37
-5525.7
6529.77
-4149.98
5404.3
-2767.53
4309.88
-1362.52
3236.25
67.6785
2175.73
1559.37
1144.06
2944.2
4511.44
1.41112e+06
-1.27105e+06
1.33985e+06
-1.20656e+06
1.27203e+06
-1.14535e+06
1.20767e+06
-1.08729e+06
1.1465e+06
-1.03196e+06
1.08838e+06
-979427
1.03317e+06
-929429
980773
-882025
930922
-836838
883651
-794039
838733
-753286
795998
-714588
755491
-677878
717026
-642986
680449
-609796
645773
-578348
612799
-548422
581462
-520010
551685
-493014
523461
-467461
496636
-443087
471127
-420006
446941
-398078
423953
-377250
402112
-357426
381357
-338677
361673
-320883
343001
-303906
325189
-287826
308270
-272549
292296
-258122
277053
-244322
262566
-231243
248811
-218859
235750
-207086
223345
-195914
211557
-185308
200354
-175232
189722
-165682
179605
-156603
170005
-147997
160878
-139822
152203
-132068
143962
-124704
136137
-117720
128693
-111087
121619
-104795
114900
-98824.4
108508
-93157.2
102433
-87777
96664.8
-82673.8
91181.6
-77834.9
85965.5
-73236.3
81007.1
-68870.3
76294
-64733.3
71814.5
-60805.9
67553.8
-57070.8
63505.9
-53534.5
59653.9
-50168.1
55988.5
-46976.1
52503.8
-43943.5
49195.2
-41066.8
46043.5
-38327
43046.3
-35722.7
40195.3
-33252.5
37485.9
-30900.2
34908.3
-28658.8
32453.8
-26526.4
30117.9
-24491.2
27894.3
-22550.4
25777.1
-20698.6
23763
-18929.8
21844.3
-17231.1
20016.3
-15602.9
18274.4
-14037.7
16613.8
-12528.1
15030
-11068.6
13517.4
-9651.25
12072.5
-8269.79
10690
-6915.53
9365.17
-5579.73
8092.48
-4253.01
6866.14
-2923.62
5680.22
-1581.59
4521.58
-203.862
3385.94
1203.37
2255.28
2690.07
1148.38
4051.11
5659.88
1.47385e+06
-1.19268e+06
1.39941e+06
-1.13212e+06
1.32869e+06
-1.07462e+06
1.26142e+06
-1.02003e+06
1.19753e+06
-968069
1.13684e+06
-918739
1.07923e+06
-871815
1.02442e+06
-827218
972449
-784867
922993
-744583
876074
-706367
831543
-670058
789204
-635538
748960
-602742
710787
-571623
674473
-542034
640038
-513987
607334
-487306
576287
-461967
546736
-437910
518723
-415074
492087
-393370
466796
-372787
442763
-353217
419972
-334635
398297
-317002
377644
-300230
358114
-284376
339572
-269285
321927
-254903
305117
-241313
289215
-228420
274109
-216137
259744
-204494
246097
-193440
233130
-182947
220810
-172989
209110
-163532
197987
-154559
187423
-146039
177383
-137957
167849
-130288
158785
-123004
150174
-116093
141986
-109532
134215
-103316
126826
-97405
119801
-91799.9
113123
-86479.1
106782
-81436.5
100755
-76645.9
95020.7
-72101.1
89573
-67788.6
84399.6
-63697
79479.7
-59813.4
74794.8
-56121
70349.3
-52625.4
66115.7
-49300.9
62097.2
-46149.6
58276.4
-43155.3
54640.9
-40308.1
51180.2
-37606.1
47893.9
-35040.7
44771.7
-32600.6
41796.7
-30277.4
38968.5
-28072
36278.7
-25969
33719.1
-23966.8
31286.9
-22059
28971.9
-20235.4
26769.6
-18496.3
24670.5
-16830.7
22673.4
-15234
20772.5
-13702
18961.7
-12226.9
17236.2
-10802.6
15591
-9423.36
14022.1
-8082.45
12523.7
-6771.39
11091.5
-5483.26
9720.42
-4208.69
8404.88
-2937.48
7138.66
-1657.41
5913.14
-356.077
4718.79
990.474
3555.96
2366.19
2390.18
3855.86
1241.73
5199.49
6901.54
1.53274e+06
-1.11131e+06
1.45528e+06
-1.05467e+06
1.38174e+06
-1.00108e+06
1.31182e+06
-950107
1.2454e+06
-901654
1.18231e+06
-855644
1.12237e+06
-811881
1.06543e+06
-770272
1.0113e+06
-730744
959930
-693209
911144
-657581
864763
-623676
820727
-591502
778925
-560940
739181
-531879
701479
-504332
665614
-478121
631561
-453254
599261
-429667
568553
-407202
539362
-385882
511686
-365694
485372
-346473
460397
-328242
436649
-310887
414078
-294431
392725
-278878
372372
-264023
353018
-249931
334662
-236548
317255
-223905
300672
-211837
284938
-200403
269986
-189541
255785
-179239
242296
-169458
229476
-160169
217298
-151353
205730
-142991
194737
-135047
184297
-127517
174370
-120360
164942
-113577
155979
-107130
147469
-101022
139376
-95224
131686
-89714.1
124382
-84496.4
117444
-79540.7
110843
-74835.9
104572
-70375.1
98609.1
-66137.8
92943.7
-62123.2
87559
-58312.3
82437.3
-54691.6
77574.9
-51258.6
72949.7
-48000.2
68552.4
-44903.6
64373.6
-41970.8
60400.5
-39182.3
56621.3
-36528.8
53029.1
-34013.9
49615.6
-31627.2
46369.1
-29354
43281.9
-27190.2
40344.2
-25134.3
37551.3
-23176.1
34898.8
-21314.3
32371.9
-19532.2
29968.8
-17832.3
27682.7
-16210.2
25508.1
-14656.2
23439.7
-13165.6
21470.6
-11732.9
19596
-10352.3
17811.4
-9017.93
16111
-7723.02
14490.1
-6461.54
12944.1
-5225.33
11467.9
-4007.04
10056.1
-2796.89
8703.61
-1585.01
7402.28
-356.062
6145.87
900.352
4926.39
2209.98
3739.55
3553.06
2547.06
5048.39
1368
6378.57
8269.59
1.58748e+06
-1.0269e+06
1.50738e+06
-974565
1.43119e+06
-924887
1.35883e+06
-877749
1.29004e+06
-832865
1.22467e+06
-790276
1.16259e+06
-749799
1.10363e+06
-711318
1.04759e+06
-674698
994417
-640037
943819
-606982
895824
-575681
850210
-545889
806912
-517642
765760
-490727
726702
-465274
689554
-440973
654314
-418014
620821
-396174
589008
-375389
558815
-355689
530123
-337002
502831
-319181
476972
-302383
452393
-286309
429035
-271073
406832
-256674
385722
-242913
365707
-229915
346735
-217577
328652
-205822
311485
-194670
295179
-184097
279692
-174054
264976
-164524
250993
-155475
237712
-146888
225094
-138735
213103
-131000
201716
-123660
190893
-116694
180610
-110077
170834
-103801
161557
-97852.1
152735
-92199.9
144344
-86832.9
136382
-81752.7
128811
-76925.5
121614
-72343.7
114778
-67999.8
108276
-63872.7
102105
-59966.8
96231.8
-56250.5
90652.5
-52733
85349
-49388.1
80308.4
-46218
75515.3
-43207.1
70962.6
-40350.9
66632.6
-37640.8
62511.6
-35061.3
58599.9
-32617.2
54884
-30297.9
51343.1
-28086.3
47977.5
-25988.5
44783.9
-23996.6
41744.6
-22095
38850.9
-20282.4
36098.2
-18561.6
33486
-16920
31000.3
-15346.6
28634.9
-13844.8
26384.6
-12405.9
24243
-11024
22205.8
-9695.65
20266.3
-8412.8
18419.5
-7171.09
16660.6
-5964.08
14984
-4784.96
13385
-3626.4
11858.6
-2480.62
10398.7
-1336.98
8998.68
-185.014
7652.23
990.372
6354.2
2198.37
5091.45
3472.73
3859.44
4785.07
2617.51
6290.32
1388.2
7607.81
9657.75
1.63819e+06
-939960
1.55547e+06
-891840
1.47693e+06
-846347
1.40221e+06
-803028
1.33129e+06
-761955
1.26387e+06
-722852
1.19978e+06
-685704
1.13894e+06
-650481
1.08117e+06
-616932
1.02624e+06
-585107
974114
-554853
924558
-526125
877487
-498818
832754
-472909
790313
-448287
750003
-424964
711699
-402669
675340
-381655
640765
-361599
607958
-342581
576764
-324495
547124
-307362
519014
-291071
492289
-275657
466880
-260900
442830
-247023
419885
-233729
398138
-221166
377490
-209267
357829
-197916
339181
-187174
321462
-176950
304636
-167271
288644
-158062
273452
-149332
259021
-141044
245309
-133176
232286
-125712
219907
-118622
208149
-111901
196972
-105518
186358
-99462.9
176274
-93716.4
166686
-88263.8
157574
-83087.9
148923
-78182.3
140697
-73526.9
132878
-69106.1
125450
-64915.6
118391
-60941.4
111688
-57169.8
105307
-53585.8
99252.1
-50195.2
93489.1
-46970.1
88014.9
-43913.9
82814
-41017
77868.6
-38261.7
73165.6
-35647.8
68694.6
-33169.8
64449.9
-30816.6
60414.9
-28582.2
56572.6
-26455.6
52925.9
-24439.5
49453.4
-22516
46155.3
-20698.5
43016.7
-18956.4
40037.2
-17302.9
37200.8
-15725.1
34501.4
-14220.7
31937.4
-12782.5
29497.9
-11405.3
27177.4
-10085.4
24970.9
-8817.5
22870.4
-7595.1
20871.7
-6414.14
18968.9
-5268.29
17156.8
-4151.97
15430
-3058.17
13783.8
-1980.21
12211.4
-908.204
10708.1
166.352
9267.37
1255.76
7883.5
2374.26
6548.95
3532.94
5248.57
4773.13
3978.07
6055.61
2692.53
7575.9
1417.98
8882.37
11075.8
1.68447e+06
-850448
1.59951e+06
-806876
1.51866e+06
-765496
1.4419e+06
-726276
1.36894e+06
-688990
1.29964e+06
-653557
1.2338e+06
-619862
1.17124e+06
-587920
1.11181e+06
-557499
1.05531e+06
-528613
1.00171e+06
-501255
950739
-475151
902359
-450438
856428
-426977
812767
-404626
771266
-383464
731918
-363320
694449
-344187
658912
-326062
625127
-308796
593103
-292471
562661
-276921
533700
-262110
506160
-248117
480083
-234823
455265
-222206
431732
-210196
409369
-198803
388096
-187994
367906
-177726
348710
-167978
330489
-158730
313170
-149953
296728
-141619
281094
-133698
266251
-126201
252143
-119068
238740
-112309
226008
-105890
213909
-99802.5
202413
-94021.4
191493
-88543.1
181114
-83336.6
171253
-78403.1
161887
-73722.3
152984
-69279.3
144522
-65064.8
136482
-61065.8
128841
-57274.3
121582
-53682.3
114680
-50267.6
108125
-47031
101888
-43958.9
95964.8
-41046.5
90339.4
-38288.5
84984.8
-35662.4
79900.9
-33177.8
75066.3
-30813.2
70475.8
-28579.3
66108.6
-26449.4
61953.4
-24427
58006.8
-22509
54254.9
-20687.6
50696.4
-18957.5
47302.9
-17305
44079.9
-15733.5
41018.4
-14241.4
38107.4
-12814.2
35338.9
-11452.1
32706.9
-10150.5
30205.6
-8903.98
27826.3
-7706.09
25563.6
-6554.77
23411.6
-5443.16
21364.5
-4366.97
19416.9
-3320.71
17563.5
-2298.63
15798.5
-1293.15
14116.3
-298.005
12512.8
695.256
10981.1
1698.08
9517.4
2719.46
8113.05
3778.6
6762.15
4883.83
5448.64
6086.64
4168.33
7335.91
2870.02
8874.21
1583.86
10168.5
12659.6
1.72645e+06
-758797
1.63928e+06
-719701
1.55654e+06
-682760
1.47788e+06
-647611
1.40307e+06
-614186
1.33208e+06
-582562
1.2646e+06
-552386
1.20045e+06
-523767
1.13954e+06
-496592
1.08173e+06
-470806
1.02673e+06
-446248
974534
-422958
924980
-400884
877852
-379849
833090
-359864
790561
-340935
750185
-322944
711872
-305873
675423
-289613
640831
-274204
607969
-259609
576692
-245643
547100
-232518
518906
-219923
492169
-208085
466719
-196755
442567
-186044
419621
-175858
397818
-166191
377114
-157022
357450
-148314
338767
-140046
321010
-132196
304139
-124749
288121
-117680
272897
-110977
258436
-104607
244697
-98569.9
231640
-92833.4
219233
-87395.3
207450
-82239
196250
-77342.7
185609
-72695.2
175497
-68291.8
165889
-64114.3
156757
-60146.7
148080
-56388.6
139840
-52825.1
132008
-49442.5
124561
-46235.5
117483
-43189.9
110761
-40309.1
104369
-37566.5
98301
-34978.4
92523.9
-32511.4
87042.3
-30180.8
81824
-27959.4
76870.9
-25860.1
72160.6
-23869
67680
-21968.7
63427.3
-20174.3
59387.1
-18468.8
55541.4
-16841.9
51883.8
-15299.9
48414.1
-13835.3
45113.6
-12432.9
41973.3
-11101.2
38990.5
-9831.29
36154.4
-8616.08
33458.5
-7454.6
30894.3
-6339.81
28457.1
-5268.85
26139.6
-4237.26
23936.2
-3239.73
21840.4
-2271.15
19846.9
-1327.18
17949.6
-401.328
16143.5
512.972
14422.5
1422.94
12781.8
2336
11216.5
3263.37
9719.96
4216.03
8285.4
5213.17
6905.43
6263.82
5564.25
7427.84
4258.25
8641.94
2926.8
10205.7
1610.5
11484.8
14270.1
1.76381e+06
-665178
1.67484e+06
-630729
1.59024e+06
-598164
1.50989e+06
-567262
1.43359e+06
-537882
1.361e+06
-509971
1.29207e+06
-483461
1.2266e+06
-458290
1.1644e+06
-434397
1.10527e+06
-411674
1.04914e+06
-390120
995842
-369659
945123
-350166
897013
-331738
851298
-314149
807875
-297512
766662
-281731
727426
-266637
690228
-252416
654873
-238849
621257
-225993
589407
-213793
559059
-202170
530330
-191195
502932
-180687
476964
-170788
452279
-161358
428832
-152411
406564
-143923
385407
-135864
365302
-128210
346198
-120942
328062
-114059
310829
-107516
294455
-101306
278890
-95412.3
264107
-89823.3
250058
-84521.7
236716
-79491.3
224042
-74721.4
211992
-70188.2
200544
-65895
189667
-61818.6
179333
-57957.3
169510
-54291
160183
-50820.5
151313
-47517.8
142884
-44396.6
134876
-41434.3
127267
-38626.7
120034
-35956.5
113156
-33431.7
106632
-31042.3
100419
-28765.4
94520.8
-26612.9
88911.6
-24571.6
83584.2
-22632
78518.2
-20794.1
73701.5
-19052.3
69130.9
-17398.2
64779.9
-15823.3
60645.5
-14334.4
56715.3
-12911.7
52983
-11567.5
49427.5
-10279.8
46054.6
-9060