/*--------------------------------*- C++ -*----------------------------------*\
  =========                 |
  \\      /  F ield         | OpenFOAM: The Open Source CFD Toolbox
   \\    /   O peration     | Website:  https://openfoam.org
    \\  /    A nd           | Version:  11
     \\/     M anipulation  |
\*---------------------------------------------------------------------------*/
FoamFile
{
    format      ascii;
    class       volVectorField;
    location    "150";
    object      U;
}
// * * * * * * * * * * * * * * * * * * * * * * * * * * * * * * * * * * * * * //

dimensions      [0 1 -1 0 0 0 0];

internalField   nonuniform List<vector> 
31595
(
(7.33854 -0.0258226 -4.08137e-20)
(7.35501 -0.0173508 3.20935e-20)
(7.34615 -0.0175085 8.08598e-20)
(7.35057 -0.0179656 8.73843e-20)
(7.34689 -0.0178391 0)
(7.3477 -0.0177084 0)
(7.34514 -0.0177572 0)
(7.34452 -0.0176601 7.47777e-20)
(7.34241 -0.0175975 3.61189e-21)
(7.34108 -0.0174716 0)
(7.3391 -0.0173413 0)
(7.3374 -0.0171639 5.75814e-20)
(7.33541 -0.0169693 -6.06247e-20)
(7.33351 -0.0167393 7.05577e-20)
(7.33148 -0.0164873 -7.42866e-20)
(7.32946 -0.0162068 8.35635e-20)
(7.32737 -0.0159047 0)
(7.32528 -0.01558 -1.0389e-19)
(7.32314 -0.0152375 2.20571e-19)
(7.321 -0.0148796 -6.24871e-20)
(7.31885 -0.0145111 6.57875e-20)
(7.31668 -0.0141362 0)
(7.31452 -0.0137609 0)
(7.31236 -0.0133915 8.89705e-20)
(7.31022 -0.0130357 -4.52372e-20)
(7.3081 -0.0127025 1.66705e-21)
(7.306 -0.0124023 -1.11323e-19)
(7.30393 -0.0121473 -6.1986e-20)
(7.30191 -0.0119512 1.32362e-19)
(7.29993 -0.0118295 -1.42216e-19)
(7.298 -0.0117997 0)
(7.29614 -0.0118814 -4.18335e-20)
(7.29434 -0.0120963 4.549e-20)
(7.29261 -0.0124683 -4.78945e-20)
(7.29095 -0.0130237 5.18467e-20)
(7.28938 -0.0137911 -5.63557e-20)
(7.28788 -0.0148015 2.88156e-20)
(7.28645 -0.0160881 9.64205e-20)
(7.28511 -0.0176863 0)
(7.28383 -0.0196341 -3.68747e-20)
(7.28263 -0.0219711 7.73896e-20)
(7.28147 -0.0247395 0)
(7.28037 -0.0279833 0)
(7.2793 -0.031748 -2.44498e-20)
(7.27825 -0.0360809 1.01818e-19)
(7.2772 -0.0410315 0)
(7.27612 -0.0466509 -2.88036e-20)
(7.27501 -0.0529921 5.98469e-20)
(7.27382 -0.0601099 -3.27638e-20)
(7.27254 -0.0680608 3.33951e-20)
(7.27114 -0.0769038 -9.52324e-20)
(7.26957 -0.0867003 1.67813e-20)
(7.26782 -0.0975148 -6.61958e-20)
(7.26584 -0.109414 9.39136e-20)
(7.2636 -0.122471 -2.26288e-20)
(7.26105 -0.13676 -5.11222e-20)
(7.25816 -0.152362 -2.90828e-20)
(7.25488 -0.169364 -1.95784e-20)
(7.25116 -0.187858 -3.56993e-20)
(7.24696 -0.207945 5.75652e-20)
(7.24223 -0.229736 -1.94199e-21)
(7.23691 -0.253352 2.38158e-20)
(7.23095 -0.278923 -2.91744e-21)
(7.22429 -0.306598 -1.10254e-20)
(7.21688 -0.336539 1.81184e-20)
(7.20864 -0.368928 -6.77179e-20)
(7.19951 -0.403967 -2.15133e-20)
(7.18942 -0.441891 1.81533e-20)
(7.17829 -0.482956 7.1049e-20)
(7.16606 -0.527464 4.22387e-21)
(7.15263 -0.575753 -3.94282e-20)
(7.13793 -0.628215 8.00826e-22)
(7.12189 -0.685316 3.60427e-20)
(7.1044 -0.747555 0)
(7.08541 -0.815651 4.61623e-20)
(7.06484 -0.890103 0)
(7.04266 -0.972379 2.32993e-20)
(7.01881 -1.06218 0)
(6.99335 -1.16388 0)
(6.96655 -1.27218 0)
(6.93768 -1.40391 4.03943e-20)
(6.91065 -1.53032 1.72844e-20)
(6.87586 -1.71765 -2.66526e-20)
(6.86245 -1.84706 -2.23203e-20)
(6.80395 -2.15245 9.48824e-21)
(6.86187 -2.23744 2.41533e-21)
(6.70237 -2.78529 3.96489e-21)
(7.10591 -2.80013 4.48366e-21)
(6.4984 -3.84941 -4.9309e-21)
(7.34746 -0.0225977 1.66003e-19)
(7.35028 -0.0170826 7.77825e-20)
(7.34968 -0.0156364 6.18922e-20)
(7.34898 -0.01653 -2.55292e-19)
(7.34805 -0.0163131 0)
(7.34707 -0.0161899 0)
(7.34568 -0.0161538 1.23732e-19)
(7.34429 -0.0160852 0)
(7.34271 -0.0159674 0)
(7.34107 -0.0158368 -1.72831e-19)
(7.33931 -0.0156709 -2.91544e-19)
(7.33751 -0.0154778 2.11195e-19)
(7.33563 -0.0152537 1.18332e-19)
(7.3337 -0.0150034 2.65615e-19)
(7.33172 -0.0147262 -1.4185e-19)
(7.32971 -0.0144255 -8.03285e-20)
(7.32765 -0.0141026 9.01962e-20)
(7.32557 -0.0137607 -2.88124e-19)
(7.32346 -0.0134026 1.89854e-21)
(7.32133 -0.0130325 -2.30948e-19)
(7.31918 -0.0126548 0)
(7.31702 -0.0122749 0)
(7.31486 -0.0118987 0)
(7.31269 -0.0115335 0)
(7.31053 -0.011187 1.8161e-19)
(7.30838 -0.0108687 0)
(7.30624 -0.010589 2.15663e-19)
(7.30413 -0.0103601 0)
(7.30204 -0.0101958 1.26942e-19)
(7.29998 -0.0101113 6.88846e-20)
(7.29796 -0.010124 -7.5528e-20)
(7.29599 -0.0102529 7.83852e-20)
(7.29405 -0.0105192 8.59239e-20)
(7.29216 -0.010946 -9.49236e-20)
(7.29032 -0.0115585 9.99512e-20)
(7.28854 -0.0123841 -5.49721e-20)
(7.2868 -0.0134523 1.15946e-19)
(7.28511 -0.0147949 -6.22828e-20)
(7.28346 -0.0164458 0)
(7.28185 -0.0184406 0)
(7.28027 -0.0208175 -1.56803e-19)
(7.27872 -0.0236164 -1.99515e-21)
(7.27717 -0.0268791 0)
(7.27562 -0.0306493 9.72224e-20)
(7.27405 -0.0349725 -1.02766e-19)
(7.27243 -0.0398959 -5.42372e-20)
(7.27076 -0.0454688 0)
(7.26901 -0.0517424 0)
(7.26714 -0.0587697 0)
(7.26514 -0.066606 3.49169e-20)
(7.26297 -0.0753088 3.74501e-20)
(7.2606 -0.0849387 4.02242e-20)
(7.25799 -0.0955586 4.32753e-20)
(7.25511 -0.107235 -4.66425e-20)
(7.25193 -0.12004 2.88142e-20)
(7.24839 -0.134047 -8.72859e-22)
(7.24446 -0.149337 6.27963e-20)
(7.24009 -0.165997 -3.63155e-20)
(7.23523 -0.184119 3.21788e-20)
(7.22984 -0.203804 -4.00224e-20)
(7.22385 -0.225164 -2.11296e-20)
(7.21722 -0.24832 -7.69996e-20)
(7.20988 -0.273403 2.53848e-20)
(7.20177 -0.300565 -3.09124e-20)
(7.19282 -0.329967 1.66519e-21)
(7.18297 -0.361796 1.12082e-19)
(7.17214 -0.396258 -4.43865e-20)
(7.16025 -0.433586 9.1793e-20)
(7.14722 -0.474048 -7.06772e-20)
(7.13296 -0.517951 3.35031e-20)
(7.11739 -0.565639 -3.26838e-20)
(7.1004 -0.617517 3.45688e-20)
(7.0819 -0.674066 -5.68339e-20)
(7.06179 -0.735807 4.65437e-20)
(7.03998 -0.803458 -2.12703e-20)
(7.01637 -0.877613 0)
(6.99089 -0.959635 6.60327e-20)
(6.9635 -1.04958 7.33003e-20)
(6.93413 -1.15127 8.08633e-20)
(6.90314 -1.26079 2.06227e-20)
(6.86974 -1.39254 -8.41015e-20)
(6.8374 -1.52278 -2.89479e-20)
(6.79808 -1.70934 -5.40977e-20)
(6.77647 -1.84813 7.02669e-20)
(6.71626 -2.15174 2.41651e-20)
(6.75928 -2.25291 -4.47486e-20)
(6.6045 -2.80286 -1.90483e-21)
(6.96158 -2.82263 -1.20275e-20)
(6.38112 -3.9028 -3.02931e-20)
(7.34891 -0.0189645 -1.28024e-19)
(7.35035 -0.0157089 -1.23243e-19)
(7.35016 -0.0140355 1.47872e-19)
(7.34919 -0.0148389 9.59517e-21)
(7.34822 -0.0148047 -1.94448e-19)
(7.34717 -0.0146453 2.04719e-19)
(7.34582 -0.0145951 2.41392e-19)
(7.3444 -0.0145155 -1.2959e-19)
(7.34285 -0.0143832 0)
(7.34122 -0.0142285 1.66762e-19)
(7.33949 -0.0140419 1.85612e-19)
(7.3377 -0.0138248 -1.03024e-19)
(7.33585 -0.0135772 -1.14186e-19)
(7.33394 -0.0133025 -1.30016e-19)
(7.33199 -0.0130018 1.35885e-19)
(7.32999 -0.0126778 0)
(7.32795 -0.012333 1.72732e-19)
(7.32588 -0.0119706 1.89465e-19)
(7.32378 -0.011594 0)
(7.32166 -0.0112074 -1.10535e-19)
(7.31951 -0.0108159 0)
(7.31735 -0.010425 -1.33725e-19)
(7.31518 -0.0100413 0)
(7.31299 -0.00967195 3.23055e-19)
(7.31081 -0.00932536 -3.43645e-19)
(7.30862 -0.00901082 -3.77547e-19)
(7.30644 -0.00873909 -2.09416e-19)
(7.30427 -0.00852222 1.11068e-19)
(7.30211 -0.00837378 -1.22632e-19)
(7.29996 -0.00830898 0)
(7.29784 -0.00834482 0)
(7.29574 -0.00849985 -7.91397e-20)
(7.29366 -0.00879449 1.66989e-19)
(7.29161 -0.00925128 9.01175e-20)
(7.28958 -0.00989429 0)
(7.28758 -0.0107501 0)
(7.28561 -0.0118468 -1.16043e-19)
(7.28365 -0.0132149 1.22227e-19)
(7.2817 -0.0148865 -6.73078e-20)
(7.27976 -0.016896 2.8826e-19)
(7.27782 -0.0192796 1.55832e-19)
(7.27587 -0.0220757 -4.24688e-22)
(7.27389 -0.0253242 -9.07768e-20)
(7.27188 -0.029067 3.70371e-21)
(7.2698 -0.0333479 1.01128e-19)
(7.26764 -0.0382125 -1.13913e-19)
(7.26539 -0.0437084 6.06777e-20)
(7.26301 -0.0498851 2.52859e-21)
(7.26049 -0.0567945 0)
(7.25778 -0.0644903 -7.78796e-20)
(7.25487 -0.0730289 -8.44587e-20)
(7.25171 -0.08247 9.17258e-20)
(7.24828 -0.0928758 -5.104e-20)
(7.24452 -0.104312 -1.04419e-19)
(7.24042 -0.116849 1.7261e-21)
(7.23591 -0.130562 6.31546e-20)
(7.23096 -0.14553 -6.66198e-20)
(7.22552 -0.16184 -3.79091e-20)
(7.21953 -0.179585 1.22742e-19)
(7.21295 -0.198866 4.04461e-20)
(7.20572 -0.219795 4.84387e-20)
(7.19778 -0.242493 5.14227e-20)
(7.18905 -0.267096 -6.40103e-20)
(7.17949 -0.293752 0)
(7.16901 -0.322627 0)
(7.15753 -0.35391 -1.69332e-19)
(7.14498 -0.387811 -5.30719e-20)
(7.13127 -0.424566 0)
(7.1163 -0.464448 0)
(7.09999 -0.507768 -6.00075e-20)
(7.08221 -0.554881 0)
(7.06286 -0.606206 -1.27129e-19)
(7.04183 -0.662227 4.38304e-20)
(7.019 -0.723491 4.89397e-21)
(6.99424 -0.790727 -1.43984e-19)
(6.96745 -0.864595 3.0674e-20)
(6.9385 -0.946399 -1.04272e-19)
(6.90734 -1.03647 -1.10525e-19)
(6.87383 -1.13821 -7.99594e-20)
(6.83831 -1.24878 1.02807e-19)
(6.79994 -1.38075 -1.12249e-19)
(6.76195 -1.51428 5.224e-20)
(6.71709 -1.7007 5.38097e-20)
(6.68746 -1.84768 -1.43953e-19)
(6.62317 -2.15021 1.57733e-20)
(6.65225 -2.26699 2.25385e-20)
(6.50016 -2.81932 6.35679e-21)
(6.82177 -2.84504 6.09039e-20)
(6.30494 -3.96518 4.85935e-20)
(7.34993 -0.0158734 -1.19181e-19)
(7.35038 -0.0140561 -1.2771e-19)
(7.35047 -0.0124609 -1.34051e-19)
(7.34937 -0.0131688 1.66265e-19)
(7.34838 -0.0132792 6.74387e-21)
(7.34728 -0.0131247 0)
(7.34597 -0.0130607 7.24714e-21)
(7.34453 -0.0129713 -1.25881e-19)
(7.343 -0.0128263 1.39821e-19)
(7.34138 -0.0126484 0)
(7.33968 -0.0124396 1.82968e-19)
(7.33791 -0.0121975 -1.9265e-19)
(7.33608 -0.0119246 -2.24414e-19)
(7.33419 -0.0116233 1.14869e-19)
(7.33226 -0.0112964 0)
(7.33028 -0.0109463 0)
(7.32826 -0.0105764 -1.61405e-19)
(7.3262 -0.0101898 -1.79141e-19)
(7.32411 -0.00979055 1.9508e-19)
(7.32199 -0.00938304 4.35578e-19)
(7.31984 -0.00897252 3.48555e-21)
(7.31768 -0.00856488 -2.59234e-19)
(7.31549 -0.00816683 -5.31164e-21)
(7.31329 -0.00778595 -3.22424e-21)
(7.31108 -0.00743068 1.01272e-21)
(7.30885 -0.00711054 1.84263e-19)
(7.30663 -0.00683613 0)
(7.30439 -0.00661948 1.10867e-19)
(7.30216 -0.006474 -2.37288e-19)
(7.29993 -0.00641471 -1.32816e-19)
(7.2977 -0.00645797 -4.20468e-21)
(7.29548 -0.0066219 -2.34488e-21)
(7.29326 -0.00692643 -1.64165e-19)
(7.29105 -0.00739316 0)
(7.28884 -0.00804538 0)
(7.28663 -0.00890843 -1.05807e-19)
(7.28441 -0.0100094 -2.17684e-21)
(7.28219 -0.0113771 0)
(7.27995 -0.0130427 0)
(7.2777 -0.0150388 -1.40756e-19)
(7.2754 -0.0174 -7.58843e-20)
(7.27306 -0.020163 1.68478e-19)
(7.27067 -0.023366 1.79096e-19)
(7.26819 -0.0270494 -9.22195e-20)
(7.26563 -0.031255 2.13069e-19)
(7.26295 -0.0360269 -1.14373e-21)
(7.26013 -0.0414111 0)
(7.25715 -0.0474556 -6.46709e-20)
(7.25398 -0.0542106 1.48149e-19)
(7.25059 -0.0617285 1.55307e-19)
(7.24696 -0.0700646 -8.93516e-20)
(7.24303 -0.0792773 -8.9345e-20)
(7.23879 -0.0894278 9.7216e-20)
(7.23418 -0.100581 0)
(7.22918 -0.112807 -1.25461e-19)
(7.22372 -0.126178 0)
(7.21777 -0.140776 0)
(7.21128 -0.156685 0)
(7.20419 -0.173999 -8.38167e-20)
(7.19645 -0.192819 4.97789e-20)
(7.18799 -0.213256 6.0195e-20)
(7.17875 -0.235432 0)
(7.16867 -0.259482 -8.48609e-21)
(7.15767 -0.285559 5.59248e-21)
(7.14566 -0.313827 0)
(7.13258 -0.344477 3.92736e-20)
(7.11832 -0.377719 3.83779e-20)
(7.10279 -0.413798 -1.20164e-19)
(7.08589 -0.452985 0)
(7.0675 -0.495601 0)
(7.04751 -0.542007 0)
(7.02578 -0.592628 3.82109e-20)
(7.0022 -0.64796 4.89381e-20)
(6.9766 -0.708576 0)
(6.94884 -0.775205 -5.66052e-21)
(6.91878 -0.848566 2.19282e-19)
(6.88627 -0.929924 3.3604e-20)
(6.8512 -1.01984 8.85398e-20)
(6.81336 -1.12138 -1.7821e-19)
(6.7731 -1.23266 1.35536e-20)
(6.72943 -1.36459 1.27864e-20)
(6.68549 -1.50102 -3.29681e-20)
(6.63434 -1.68696 3.49952e-20)
(6.5965 -1.84188 1.53309e-19)
(6.52644 -2.14288 0)
(6.54165 -2.27551 9.63139e-20)
(6.39094 -2.83102 5.0866e-20)
(6.67341 -2.86335 -4.58192e-20)
(6.23241 -4.0279 -1.94643e-20)
(7.35024 -0.0132711 2.23812e-19)
(7.35046 -0.0124266 0)
(7.35061 -0.0109428 1.30268e-19)
(7.34956 -0.011565 3.16402e-19)
(7.3485 -0.011768 -1.64093e-19)
(7.3474 -0.0116401 -1.92301e-19)
(7.3461 -0.0115597 4.51717e-19)
(7.34468 -0.0114611 -4.91585e-19)
(7.34317 -0.0113015 0)
(7.34157 -0.0111015 1.58993e-19)
(7.33989 -0.010868 -1.67407e-19)
(7.33814 -0.0105998 0)
(7.33633 -0.0102992 0)
(7.33446 -0.00996943 0)
(7.33254 -0.00961344 2.5593e-19)
(7.33058 -0.00923444 0)
(7.32857 -0.00883585 1.56907e-19)
(7.32653 -0.00842141 -1.75662e-19)
(7.32445 -0.00799519 -4.66819e-21)
(7.32233 -0.00756186 -2.06254e-19)
(7.32018 -0.00712686 -2.34048e-19)
(7.31801 -0.00669628 4.94367e-19)
(7.31581 -0.00627698 0)
(7.31359 -0.00587662 2.97009e-19)
(7.31135 -0.00550386 3.257e-19)
(7.30909 -0.00516816 -3.78937e-21)
(7.30681 -0.00488012 1.90723e-19)
(7.30451 -0.00465159 0)
(7.30221 -0.00449575 0)
(7.29989 -0.00442719 2.52745e-19)
(7.29755 -0.00446186 -1.31994e-19)
(7.29521 -0.0046175 -1.46268e-19)
(7.29285 -0.00491307 1.61188e-19)
(7.29047 -0.00536959 1.75143e-19)
(7.28808 -0.00600949 -1.92323e-19)
(7.28566 -0.00685704 3.06885e-19)
(7.28322 -0.0079381 7.73371e-22)
(7.28074 -0.00928044 0)
(7.27822 -0.0109135 -1.32002e-19)
(7.27564 -0.0128688 0)
(7.27301 -0.0151793 1.55453e-19)
(7.27029 -0.01788 -3.32871e-19)
(7.26749 -0.0210076 -9.15947e-20)
(7.26458 -0.0246009 3.70705e-22)
(7.26154 -0.0286999 -2.1202e-19)
(7.25834 -0.0333475 2.30853e-19)
(7.25498 -0.0385877 3.87724e-21)
(7.25142 -0.0444672 -1.34297e-19)
(7.24763 -0.0510347 8.32841e-20)
(7.24358 -0.0583412 -7.96373e-20)
(7.23924 -0.066441 8.56603e-20)
(7.23457 -0.0753908 1.10492e-21)
(7.22954 -0.085251 -3.99715e-21)
(7.22411 -0.0960852 1.13771e-19)
(7.21822 -0.107963 1.22547e-19)
(7.21184 -0.120956 -7.15671e-20)
(7.20492 -0.135143 -3.36571e-21)
(7.1974 -0.150611 -3.84023e-21)
(7.18923 -0.167451 1.89975e-19)
(7.18034 -0.185765 -5.34163e-20)
(7.17068 -0.205664 7.33478e-21)
(7.16017 -0.227269 1.9666e-19)
(7.14874 -0.250715 1.36092e-19)
(7.13631 -0.276155 -2.42122e-19)
(7.1228 -0.303754 -9.12793e-20)
(7.10811 -0.333707 9.65671e-20)
(7.09215 -0.366224 1.05368e-19)
(7.07481 -0.401549 -1.22372e-20)
(7.05597 -0.439962 0)
(7.03551 -0.481783 -8.04046e-20)
(7.01329 -0.527381 1.30327e-19)
(6.98916 -0.577191 -4.78464e-20)
(6.96298 -0.631714 0)
(6.93458 -0.691541 -6.39692e-20)
(6.90376 -0.757412 6.78958e-20)
(6.87036 -0.830101 -1.48177e-19)
(6.83416 -0.910839 -1.854e-19)
(6.79506 -1.00037 2.07985e-19)
(6.75273 -1.10151 2.19989e-19)
(6.70748 -1.21319 1.44718e-20)
(6.65823 -1.3449 1.27166e-19)
(6.60801 -1.48374 3.76527e-20)
(6.55002 -1.66912 -2.11736e-19)
(6.50364 -1.83136 -8.23189e-20)
(6.42653 -2.13075 0)
(6.42775 -2.27915 -8.81134e-20)
(6.27612 -2.83943 -6.7731e-20)
(6.51342 -2.87942 9.50291e-20)
(6.12771 -4.083 0)
(7.35053 -0.0110948 0)
(7.3505 -0.0108706 0)
(7.35071 -0.00952111 0)
(7.34971 -0.0100474 -1.51006e-19)
(7.34862 -0.0103046 -1.78021e-19)
(7.34752 -0.0102008 1.87441e-19)
(7.34625 -0.0101036 -9.45503e-22)
(7.34484 -0.00999007 -2.40743e-19)
(7.34334 -0.00981342 -2.68088e-19)
(7.34176 -0.00958946 0)
(7.3401 -0.00932887 -3.30506e-19)
(7.33838 -0.00903198 0)
(7.33659 -0.0087012 2.02527e-19)
(7.33474 -0.00834006 0)
(7.33285 -0.00795206 -2.49609e-19)
(7.3309 -0.00754071 2.80286e-19)
(7.32891 -0.00710983 4.70012e-21)
(7.32687 -0.00666334 0)
(7.3248 -0.00620559 1.81361e-19)
(7.32268 -0.00574144 -2.02562e-19)
(7.32054 -0.00527633 -5.271e-21)
(7.31836 -0.0048165 -2.39709e-19)
(7.31614 -0.0043689 2.62645e-19)
(7.3139 -0.00394127 -5.77352e-19)
(7.31163 -0.0035423 -1.5841e-19)
(7.30932 -0.00318133 2.80047e-21)
(7.30699 -0.00286903 -1.85201e-19)
(7.30464 -0.00261687 0)
(7.30226 -0.0024378 2.28306e-19)
(7.29985 -0.00234584 -2.36006e-19)
(7.29741 -0.00235685 -1.28943e-19)
(7.29494 -0.00248747 2.89836e-19)
(7.29244 -0.00275649 -3.17743e-19)
(7.28991 -0.00318395 -1.76508e-19)
(7.28734 -0.00379131 -5.87781e-21)
(7.28472 -0.00460184 4.03586e-19)
(7.28205 -0.00564047 0)
(7.27932 -0.00693363 0)
(7.27652 -0.0085096 -3.28171e-21)
(7.27364 -0.0103983 -3.47846e-21)
(7.27067 -0.0126315 -1.51942e-19)
(7.2676 -0.0152424 -4.99011e-21)
(7.2644 -0.0182665 -9.77552e-20)
(7.26106 -0.0217407 1.97813e-19)
(7.25756 -0.0257038 1.06085e-19)
(7.25388 -0.0301969 0)
(7.24998 -0.0352625 0)
(7.24586 -0.0409459 1.42429e-19)
(7.24146 -0.0472942 -2.99248e-19)
(7.23677 -0.0543572 0)
(7.23176 -0.0621879 -2.81441e-19)
(7.22637 -0.0708413 -1.01488e-19)
(7.22058 -0.0803771 1.08226e-19)
(7.21433 -0.0908575 0)
(7.2076 -0.102351 1.37995e-19)
(7.20032 -0.114928 -7.55211e-20)
(7.19244 -0.128669 1.63249e-19)
(7.18392 -0.143656 -2.75005e-19)
(7.17469 -0.159982 7.49207e-21)
(7.16468 -0.177747 0)
(7.15383 -0.197062 -1.18392e-19)
(7.14207 -0.218048 -1.31683e-19)
(7.12932 -0.240841 7.8713e-20)
(7.11549 -0.265591 -7.55289e-21)
(7.10048 -0.292468 9.30091e-20)
(7.08421 -0.321661 -2.21364e-19)
(7.06656 -0.353386 5.48447e-20)
(7.04741 -0.38789 1.22711e-19)
(7.02664 -0.425452 -7.32903e-20)
(7.0041 -0.466395 0)
(6.97965 -0.511097 1.988e-19)
(6.95311 -0.559996 2.23774e-19)
(6.92431 -0.613606 0)
(6.89305 -0.672533 -6.99372e-20)
(6.85913 -0.737524 -6.91152e-21)
(6.82231 -0.809394 -2.63846e-19)
(6.78235 -0.889365 1.34106e-19)
(6.73906 -0.97834 1.30606e-19)
(6.69208 -1.07893 -4.93946e-19)
(6.64161 -1.19074 -6.26591e-20)
(6.5865 -1.32215 -3.88037e-20)
(6.52957 -1.46299 -1.79605e-19)
(6.46423 -1.64795 1.70203e-19)
(6.40866 -1.81688 -1.89858e-19)
(6.32337 -2.11522 2.599e-20)
(6.30983 -2.27891 0)
(6.1547 -2.84438 0)
(6.36079 -2.90382 2.83277e-20)
(5.97149 -4.11253 -6.06639e-21)
(7.35076 -0.00925512 0)
(7.35052 -0.00943405 0)
(7.35078 -0.00821146 0)
(7.34984 -0.00863235 1.22076e-20)
(7.34874 -0.0089063 -1.6167e-19)
(7.34765 -0.00881745 3.77517e-19)
(7.3464 -0.00869965 -4.15378e-19)
(7.34501 -0.00856467 7.11081e-19)
(7.34353 -0.0083664 7.7955e-21)
(7.34197 -0.00811551 0)
(7.34034 -0.00782463 3.23341e-19)
(7.33863 -0.00749595 1.82829e-19)
(7.33687 -0.00713188 -3.90693e-19)
(7.33504 -0.00673623 0)
(7.33317 -0.00631285 2.46118e-19)
(7.33124 -0.0058656 -2.59187e-19)
(7.32926 -0.00539848 5.13619e-21)
(7.32723 -0.00491566 -3.14437e-19)
(7.32517 -0.00442162 2.9813e-21)
(7.32306 -0.00392136 4.88983e-21)
(7.32091 -0.00342036 -5.72416e-21)
(7.31872 -0.00292491 4.63638e-19)
(7.31649 -0.00244194 -2.3518e-21)
(7.31422 -0.00197923 5.60651e-19)
(7.31192 -0.00154532 0)
(7.30958 -0.00114953 0)
(7.3072 -0.000802335 0)
(7.30478 -0.000514959 0)
(7.30233 -0.000299961 -4.41812e-19)
(7.29983 -0.000171025 4.74276e-19)
(7.29729 -0.000143351 5.2646e-19)
(7.2947 -0.000233177 -1.37247e-19)
(7.29207 -0.000458526 -3.13216e-19)
(7.28938 -0.000838454 1.66328e-19)
(7.28663 -0.00139378 0)
(7.28381 -0.00214674 -6.05593e-19)
(7.28092 -0.00312116 -2.27193e-19)
(7.27795 -0.00434233 -5.37053e-21)
(7.27489 -0.00583729 0)
(7.27172 -0.00763457 -2.67312e-21)
(7.26843 -0.00976452 0)
(7.265 -0.0122592 -1.71209e-19)
(7.26142 -0.0151521 3.61417e-19)
(7.25767 -0.0184792 -1.97236e-19)
(7.25373 -0.0222774 -1.11485e-19)
(7.24957 -0.0265863 -4.37375e-21)
(7.24517 -0.0314469 1.28583e-19)
(7.2405 -0.0369033 0)
(7.23552 -0.0430008 -1.60532e-19)
(7.23022 -0.0497878 0)
(7.22454 -0.0573161 3.78911e-19)
(7.21846 -0.0656394 -1.06652e-19)
(7.21192 -0.0748157 1.12569e-19)
(7.2049 -0.084906 1.29787e-19)
(7.19734 -0.0959783 -2.73436e-19)
(7.18918 -0.108102 -1.51514e-19)
(7.18038 -0.121354 0)
(7.17088 -0.135818 1.84007e-19)
(7.16062 -0.151585 -1.02112e-19)
(7.14952 -0.168755 0)
(7.13751 -0.187436 -1.3556e-19)
(7.12453 -0.207751 0)
(7.11047 -0.229834 0)
(7.09526 -0.253835 -9.39798e-20)
(7.07879 -0.279922 2.04751e-19)
(7.06095 -0.308287 1.16616e-19)
(7.04163 -0.339144 7.44333e-21)
(7.02069 -0.372741 -1.82281e-21)
(6.998 -0.409359 0)
(6.9734 -0.449327 0)
(6.94672 -0.49302 -3.04916e-19)
(6.91777 -0.540886 -2.15182e-19)
(6.88634 -0.593446 -3.99011e-19)
(6.85222 -0.651317 -7.60527e-20)
(6.81514 -0.715253 2.4006e-19)
(6.77486 -0.786109 1.79528e-19)
(6.73105 -0.865097 5.45623e-20)
(6.68348 -0.953252 -2.8608e-19)
(6.6317 -1.05304 2.56269e-19)
(6.57581 -1.16461 0)
(6.51457 -1.29543 -1.77155e-19)
(6.45053 -1.43773 2.74822e-19)
(6.37733 -1.62202 -1.01967e-19)
(6.31185 -1.7969 2.16683e-19)
(6.21724 -2.09384 0)
(6.18793 -2.27271 0)
(6.02673 -2.84059 1.39919e-20)
(6.199 -2.91681 8.35608e-21)
(5.8388 -4.15341 -9.82809e-22)
(7.35101 -0.00769432 0)
(7.35057 -0.00811782 0)
(7.35083 -0.0070122 -2.56339e-19)
(7.34996 -0.00732365 5.94555e-19)
(7.34886 -0.00758363 -6.50778e-19)
(7.34778 -0.00749684 -3.68076e-19)
(7.34655 -0.00735314 -2.11408e-19)
(7.34519 -0.00718948 2.2831e-19)
(7.34373 -0.00696394 1.34802e-20)
(7.3422 -0.00668205 -5.64556e-19)
(7.34059 -0.0063572 -5.59767e-21)
(7.33891 -0.00599308 -3.43547e-19)
(7.33717 -0.00559225 -1.83785e-19)
(7.33537 -0.00515862 3.31817e-21)
(7.33351 -0.00469633 7.22891e-21)
(7.33159 -0.00420934 -5.1416e-19)
(7.32963 -0.00370185 5.57864e-19)
(7.32762 -0.00317825 9.20485e-21)
(7.32556 -0.00264308 -1.60361e-19)
(7.32345 -0.00210137 -5.58491e-19)
(7.3213 -0.00155866 -2.07855e-19)
(7.3191 -0.00102119 -2.25629e-19)
(7.31686 -0.000495794 -2.50109e-19)
(7.31457 9.78922e-06 4.46503e-21)
(7.31224 0.000487218 -8.9622e-19)
(7.30986 0.000927224 4.88456e-19)
(7.30743 0.00131968 -3.54572e-19)
(7.30495 0.00165359 -4.40291e-21)
(7.30243 0.00191674 -7.17586e-21)
(7.29984 0.00209596 4.69204e-19)
(7.2972 0.00217657 -5.07964e-19)
(7.2945 0.00214295 -2.79696e-19)
(7.29173 0.00197786 6.1441e-19)
(7.28889 0.00166299 -1.64091e-19)
(7.28598 0.00117831 -3.68536e-19)
(7.28297 0.0005027 3.93876e-19)
(7.27987 -0.000386678 2.16173e-19)
(7.27667 -0.00151397 2.3582e-19)
(7.27334 -0.00290499 -2.61176e-19)
(7.26989 -0.00458699 1.40394e-19)
(7.26629 -0.00658905 0)
(7.26253 -0.0089417 1.48072e-21)
(7.25858 -0.0116771 -1.82018e-19)
(7.25444 -0.0148295 2.05527e-19)
(7.25007 -0.0184346 1.13387e-19)
(7.24545 -0.0225304 -2.43954e-19)
(7.24056 -0.0271565 1.31188e-19)
(7.23537 -0.0323552 1.50057e-19)
(7.22983 -0.0381704 -1.65251e-19)
(7.22393 -0.0446494 1.74192e-19)
(7.21762 -0.0518418 -3.91513e-19)
(7.21087 -0.0598005 1.10642e-19)
(7.20362 -0.0685819 -1.16812e-19)
(7.19584 -0.0782459 -1.35331e-19)
(7.18748 -0.0888584 4.35078e-19)
(7.17848 -0.100487 -3.24936e-19)
(7.16878 -0.11321 -9.24175e-20)
(7.15833 -0.127107 -1.08223e-19)
(7.14706 -0.142269 1.14498e-19)
(7.1349 -0.158793 -5.04578e-19)
(7.12177 -0.17679 2.69107e-19)
(7.10758 -0.196377 -1.59372e-19)
(7.09226 -0.217689 2.58265e-19)
(7.07569 -0.240874 2.9474e-19)
(7.05778 -0.266102 0)
(7.03841 -0.29356 0)
(7.01744 -0.323465 1.41481e-19)
(6.99474 -0.356063 -1.50036e-19)
(6.97016 -0.391637 1.79834e-19)
(6.94351 -0.430512 0)
(6.91461 -0.473072 -1.61238e-20)
(6.88326 -0.519763 -2.58409e-19)
(6.84921 -0.571111 -9.37633e-20)
(6.81222 -0.627744 7.73338e-20)
(6.77198 -0.690423 0)
(6.7282 -0.760031 3.16594e-19)
(6.6805 -0.837774 -1.11967e-19)
(6.62857 -0.924794 6.7117e-20)
(6.57188 -1.02344 -1.4737e-19)
(6.5104 -1.13433 8.08751e-20)
(6.44281 -1.26415 1.78145e-19)
(6.37132 -1.40723 0)
(6.28981 -1.59036 0)
(6.21381 -1.77031 2.71926e-19)
(6.10883 -2.06501 -2.85204e-19)
(6.06276 -2.25886 0)
(5.89247 -2.826 0)
(6.03299 -2.92942 -1.36671e-19)
(5.71233 -4.19844 -4.30316e-20)
(7.35127 -0.0063642 2.15921e-19)
(7.35065 -0.00691922 -2.81669e-21)
(7.3509 -0.0059184 -2.61747e-19)
(7.35009 -0.00612054 0)
(7.34899 -0.00634139 -3.34744e-19)
(7.34792 -0.00624297 7.14688e-19)
(7.34672 -0.00606723 -3.9969e-19)
(7.34538 -0.00586776 7.36539e-21)
(7.34395 -0.00560873 -2.41441e-19)
(7.34245 -0.00529123 0)
(7.34086 -0.00492827 3.05563e-19)
(7.33921 -0.00452475 3.38094e-19)
(7.33749 -0.00408342 -1.85058e-19)
(7.33571 -0.00360814 1.90866e-19)
(7.33387 -0.00310313 4.48857e-19)
(7.33198 -0.00257247 -5.0268e-19)
(7.33003 -0.0020204 2.64914e-19)
(7.32803 -0.00145145 3.04449e-19)
(7.32598 -0.000870205 0)
(7.32388 -0.000281736 7.31622e-19)
(7.32173 0.000308539 -4.05249e-19)
(7.31952 0.000894396 6.58058e-19)
(7.31727 0.00146927 0)
(7.31496 0.00202545 -2.71698e-19)
(7.3126 0.00255479 2.81359e-19)
(7.31018 0.00304832 3.13837e-19)
(7.3077 0.00349608 1.7586e-19)
(7.30517 0.00388753 -1.92524e-19)
(7.30257 0.00421063 2.10719e-19)
(7.2999 0.00445292 0)
(7.29717 0.00460033 2.51702e-19)
(7.29435 0.00463772 -5.58287e-21)
(7.29146 0.00454853 1.42971e-19)
(7.28847 0.00431549 -6.21006e-21)
(7.28539 0.00391945 5.41756e-19)
(7.28221 0.00334001 7.43666e-21)
(7.2789 0.00255555 8.16099e-21)
(7.27547 0.00154298 -4.70575e-19)
(7.2719 0.00027768 2.57408e-19)
(7.26818 -0.00126636 -1.44861e-19)
(7.26428 -0.00311689 -6.03986e-21)
(7.2602 -0.00530294 3.36142e-19)
(7.2559 -0.00785558 -1.91022e-19)
(7.25138 -0.0108072 -2.09038e-19)
(7.24661 -0.0141925 -1.94857e-21)
(7.24155 -0.0180475 6.21347e-19)
(7.23619 -0.0224105 -2.7319e-19)
(7.23049 -0.0273221 1.47179e-19)
(7.22442 -0.0328252 0)
(7.21795 -0.038965 -1.86173e-19)
(7.21103 -0.0457897 4.03487e-19)
(7.20363 -0.0533507 1.14426e-19)
(7.19569 -0.0617029 -2.46647e-19)
(7.18718 -0.0709048 -1.3387e-19)
(7.17805 -0.0810204 0)
(7.16823 -0.0921168 1.64574e-19)
(7.15766 -0.104269 4.58054e-22)
(7.14629 -0.117557 -5.87817e-22)
(7.13405 -0.132068 0)
(7.12085 -0.147901 5.20802e-19)
(7.10662 -0.16516 0)
(7.09127 -0.183965 1.67618e-19)
(7.07471 -0.204448 -1.77021e-19)
(7.05682 -0.226755 -1.98435e-19)
(7.0375 -0.251054 -1.18249e-19)
(7.01662 -0.277531 -1.2564e-19)
(6.99403 -0.306402 0)
(6.9696 -0.337912 0)
(6.94314 -0.37234 -1.78492e-19)
(6.91447 -0.410015 -1.07524e-19)
(6.88338 -0.45132 9.87077e-20)
(6.84964 -0.496697 2.56854e-19)
(6.81298 -0.546683 4.45852e-19)
(6.77312 -0.601903 -1.65391e-19)
(6.72972 -0.66313 1.99583e-19)
(6.68241 -0.731263 1.5543e-20)
(6.63079 -0.807506 2.56829e-19)
(6.57444 -0.893086 0)
(6.51275 -0.990257 0)
(6.44554 -1.10004 -3.74771e-19)
(6.37142 -1.22847 1.04667e-19)
(6.29222 -1.37169 6.87888e-20)
(6.20202 -1.5532 6.26433e-20)
(6.11497 -1.73729 -2.0186e-19)
(5.99877 -2.02917 -1.08668e-19)
(5.93515 -2.23727 3.20796e-19)
(5.75328 -2.80215 -2.6233e-19)
(5.85916 -2.93858 -2.07973e-20)
(5.54359 -4.22718 -2.81545e-20)
(7.35154 -0.00522867 1.61689e-19)
(7.35077 -0.00583153 0)
(7.35098 -0.00492177 2.51902e-19)
(7.35022 -0.0050177 0)
(7.34914 -0.00518051 3.28904e-19)
(7.34807 -0.00505729 -3.46334e-19)
(7.3469 -0.0048433 1.92596e-19)
(7.34559 -0.00460136 4.38777e-19)
(7.34419 -0.00430259 -4.83514e-19)
(7.34271 -0.00394459 -1.32358e-20)
(7.34115 -0.00353924 2.88793e-19)
(7.33953 -0.00309227 0)
(7.33783 -0.00260653 3.63715e-19)
(7.33608 -0.00208572 -4.0156e-19)
(7.33426 -0.0015341 -4.43161e-19)
(7.33239 -0.000955777 2.33197e-19)
(7.33046 -0.000354908 -7.72086e-21)
(7.32847 0.000263929 0)
(7.32643 0.000896185 -3.21251e-19)
(7.32434 0.0015368 -7.12295e-19)
(7.32218 0.00218039 1.97187e-19)
(7.31997 0.00282098 -4.3051e-19)
(7.31771 0.00345212 -2.3501e-19)
(7.31538 0.00406637 0)
(7.31299 0.0046559 2.83634e-19)
(7.31054 0.00521179 3.11458e-19)
(7.30802 0.00572462 0)
(7.30543 0.00618398 0)
(7.30276 0.00657859 0)
(7.30002 0.00689621 5.31367e-21)
(7.29719 0.00712352 -2.38794e-19)
(7.29427 0.0072459 -5.39489e-19)
(7.29126 0.00724781 -2.9828e-19)
(7.28813 0.00711248 3.27335e-19)
(7.2849 0.00682175 -1.796e-19)
(7.28154 0.00635636 -1.97099e-19)
(7.27804 0.00569551 2.20135e-19)
(7.2744 0.0048173 7.16869e-21)
(7.27059 0.00369817 -2.54609e-19)
(7.26661 0.00231337 -4.32275e-19)
(7.26243 0.000636506 1.53438e-19)
(7.25804 -0.0013602 0)
(7.25341 -0.00370641 -1.93266e-19)
(7.24853 -0.00643303 1.99171e-19)
(7.24336 -0.00957331 -2.26085e-19)
(7.23789 -0.0131617 -2.48858e-19)
(7.23208 -0.0172352 -2.8221e-19)
(7.2259 -0.0218328 0)
(7.21931 -0.0269957 -1.72454e-19)
(7.21229 -0.0327677 1.84343e-19)
(7.20479 -0.0391956 7.68361e-21)
(7.19676 -0.046329 0)
(7.18817 -0.0542211 1.19049e-19)
(7.17896 -0.0629287 2.84402e-19)
(7.16908 -0.0725149 -3.16266e-19)
(7.15847 -0.0830441 1.71431e-19)
(7.14707 -0.0945893 3.92498e-19)
(7.13481 -0.107231 -4.3656e-19)
(7.12162 -0.121053 0)
(7.10742 -0.136152 -2.6576e-19)
(7.09212 -0.152631 -3.13109e-19)
(7.07564 -0.170608 -1.66506e-19)
(7.05786 -0.190212 -1.9793e-19)
(7.03869 -0.211588 9.85372e-20)
(7.01799 -0.234902 3.53326e-19)
(6.99563 -0.26034 -1.40745e-19)
(6.97146 -0.28811 4.65087e-19)
(6.94532 -0.318458 -1.78886e-19)
(6.91702 -0.351664 2.90952e-19)
(6.88635 -0.388054 1.20032e-19)
(6.85309 -0.428007 2.42284e-19)
(6.81698 -0.471969 0)
(6.77773 -0.520473 1.65685e-19)
(6.735 -0.574149 -8.25212e-20)
(6.68843 -0.633775 -4.06478e-19)
(6.6376 -0.700264 7.77054e-21)
(6.58201 -0.774819 -2.6574e-19)
(6.52119 -0.858736 6.88271e-20)
(6.45441 -0.954202 1.72385e-19)
(6.38133 -1.06255 6.86688e-19)
(6.30048 -1.18932 -1.14143e-19)
(6.21323 -1.33217 -6.40559e-19)
(6.11391 -1.51189 -2.92766e-19)
(6.01509 -1.69926 3.30828e-19)
(5.88675 -1.98844 6.8061e-19)
(5.80406 -2.20952 -3.65113e-19)
(5.60878 -2.7732 3.51066e-19)
(5.6796 -2.93614 -2.43035e-20)
(5.33783 -4.23719 1.72303e-19)
(7.35183 -0.00425937 3.29861e-19)
(7.35092 -0.00484746 2.5034e-19)
(7.35108 -0.00401394 2.53059e-19)
(7.35036 -0.00400859 0)
(7.3493 -0.00409952 0)
(7.34825 -0.00393961 0)
(7.3471 -0.00368137 3.95072e-19)
(7.34582 -0.00339107 -2.01706e-19)
(7.34445 -0.00304656 2.33922e-19)
(7.34299 -0.00264321 -2.67332e-19)
(7.34147 -0.00219123 2.8153e-19)
(7.33987 -0.0016967 3.26253e-19)
(7.3382 -0.00116261 -3.4359e-19)
(7.33647 -0.000592488 0)
(7.33468 9.61159e-06 2.08603e-19)
(7.33283 0.000639634 -2.93428e-21)
(7.33092 0.00129351 -2.57663e-19)
(7.32895 0.00196673 -2.83932e-19)
(7.32692 0.00265477 3.18024e-19)
(7.32483 0.00335277 5.61347e-21)
(7.32268 0.0040554 1.95474e-19)
(7.32047 0.00475692 5.78269e-21)
(7.31819 0.00545096 2.32702e-19)
(7.31585 0.00613062 -2.52383e-19)
(7.31344 0.00678815 -5.66343e-19)
(7.31096 0.00741507 2.97418e-19)
(7.30839 0.00800229 3.44496e-19)
(7.30575 0.00853984 -5.42328e-19)
(7.30303 0.00901676 -1.99327e-19)
(7.30021 0.00942152 2.23824e-19)
(7.29729 0.00974123 -2.44532e-19)
(7.29428 0.00996213 6.30991e-21)
(7.29114 0.0100695 -2.89834e-19)
(7.28789 0.0100472 -6.48946e-19)
(7.28451 0.00987806 1.77978e-19)
(7.28099 0.00954371 -4.78001e-21)
(7.27731 0.00902433 -8.97205e-21)
(7.27346 0.00829916 7.04791e-19)
(7.26943 0.00734583 2.65972e-19)
(7.2652 0.0061408 1.50244e-19)
(7.26075 0.00465888 -1.54322e-19)
(7.25607 0.00287371 0)
(7.25112 0.000756951 1.95661e-19)
(7.2459 -0.00172101 2.20218e-21)
(7.24036 -0.00459169 2.35082e-19)
(7.23449 -0.00788831 2.6326e-19)
(7.22825 -0.0116463 -2.85178e-19)
(7.22161 -0.015903 0)
(7.21454 -0.0206979 -7.16542e-21)
(7.20699 -0.0260736 -9.45574e-21)
(7.19893 -0.0320748 -2.20908e-19)
(7.19031 -0.0387498 4.76e-19)
(7.18109 -0.0461497 1.09702e-20)
(7.17121 -0.0543303 -2.993e-19)