/*--------------------------------*- C++ -*----------------------------------*\
  =========                 |
  \\      /  F ield         | OpenFOAM: The Open Source CFD Toolbox
   \\    /   O peration     | Website:  https://openfoam.org
    \\  /    A nd           | Version:  11
     \\/     M anipulation  |
\*---------------------------------------------------------------------------*/
FoamFile
{
    format      ascii;
    class       volVectorField;
    location    "150";
    object      U;
}
// * * * * * * * * * * * * * * * * * * * * * * * * * * * * * * * * * * * * * //

dimensions      [0 1 -1 0 0 0 0];

internalField   nonuniform List<vector> 
31595
(
(25.5338 3.32542 -8.57778e-19)
(25.683 3.41417 3.10805e-19)
(25.6304 3.43984 1.29412e-18)
(25.6433 3.43205 1.45432e-18)
(25.6238 3.43411 0)
(25.6164 3.43817 0)
(25.5953 3.43907 0)
(25.5777 3.4404 1.11278e-18)
(25.5552 3.44179 3.38092e-20)
(25.5325 3.44332 0)
(25.5074 3.44493 0)
(25.4813 3.44679 8.22953e-19)
(25.4536 3.44888 -8.67118e-19)
(25.4247 3.45125 9.99613e-19)
(25.3945 3.45392 -1.05335e-18)
(25.3631 3.45692 1.17773e-18)
(25.3304 3.46026 0)
(25.2964 3.46397 -1.47178e-18)
(25.2611 3.46808 3.12407e-18)
(25.2245 3.47259 -8.92095e-19)
(25.1866 3.47754 9.40263e-19)
(25.1473 3.48294 0)
(25.1065 3.48882 0)
(25.0643 3.49519 1.30854e-18)
(25.0206 3.50208 -6.59697e-19)
(24.9754 3.5095 3.28607e-20)
(24.9285 3.51747 -1.66724e-18)
(24.8799 3.52601 -9.5724e-19)
(24.8297 3.53514 2.0615e-18)
(24.7776 3.54486 -2.23276e-18)
(24.7237 3.5552 0)
(24.6679 3.56615 -6.6786e-19)
(24.6102 3.57772 7.67206e-19)
(24.5504 3.58992 -8.09271e-19)
(24.4885 3.60275 9.12945e-19)
(24.4243 3.6162 -1.01641e-18)
(24.3579 3.63026 5.38306e-19)
(24.2892 3.64492 1.79518e-18)
(24.2179 3.66017 0)
(24.1441 3.67598 -7.38075e-19)
(24.0675 3.69233 1.57838e-18)
(23.9882 3.7092 0)
(23.9058 3.72654 0)
(23.8204 3.74433 -5.42527e-19)
(23.7317 3.76252 2.27446e-18)
(23.6396 3.78107 0)
(23.5438 3.79994 -7.08056e-19)
(23.4442 3.81906 1.51489e-18)
(23.3405 3.83839 -8.5354e-19)
(23.2326 3.85786 9.26701e-19)
(23.1201 3.87742 -2.51583e-18)
(23.0028 3.89699 5.44489e-19)
(22.8804 3.91649 -1.83322e-18)
(22.7525 3.93585 2.67361e-18)
(22.6189 3.95498 -7.12422e-19)
(22.479 3.97378 -1.61115e-18)
(22.3326 3.99215 -9.10945e-19)
(22.1791 4.00996 -5.22423e-19)
(22.0181 4.0271 -1.11182e-18)
(21.849 4.04342 1.77543e-18)
(21.6712 4.05876 -1.09899e-20)
(21.4842 4.07294 7.26805e-19)
(21.2871 4.08574 3.8595e-20)
(21.0791 4.09695 -4.10876e-19)
(20.8596 4.10629 5.18445e-19)
(20.6273 4.11345 -2.18282e-18)
(20.3814 4.11806 -6.14011e-19)
(20.1205 4.11972 6.75635e-19)
(19.8434 4.11792 2.26211e-18)
(19.5485 4.11208 5.22603e-20)
(19.2341 4.10149 -1.35235e-18)
(18.8982 4.08532 2.24621e-20)
(18.5387 4.06256 1.18146e-18)
(18.1529 4.03196 0)
(17.738 3.992 1.48194e-18)
(17.2905 3.9408 0)
(16.8064 3.876 9.51716e-19)
(16.2811 3.7946 0)
(15.7091 3.6928 0)
(15.0839 3.56566 0)
(14.3976 3.40678 1.66143e-18)
(13.6412 3.20744 9.68056e-19)
(12.8032 2.95672 -1.73131e-18)
(11.8709 2.63726 -1.40888e-18)
(10.8278 2.23267 8.179e-19)
(9.65705 1.69662 5.32692e-19)
(8.33828 1.03613 7.01406e-19)
(6.85365 0.0297505 -9.17773e-19)
(5.24452 -0.865757 1.30239e-18)
(25.6433 3.36557 2.6786e-18)
(25.6528 3.416 1.42937e-18)
(25.6551 3.45695 1.2216e-18)
(25.643 3.44976 -4.18972e-18)
(25.6302 3.45115 0)
(25.6164 3.45596 0)
(25.5985 3.45831 1.87619e-18)
(25.5787 3.46015 0)
(25.5571 3.46243 0)
(25.5339 3.4648 -2.5195e-18)
(25.5092 3.46733 -4.20909e-18)
(25.4832 3.47011 3.0389e-18)
(25.4558 3.47319 1.68645e-18)
(25.4272 3.47658 3.77311e-18)
(25.3973 3.48033 -2.01837e-18)
(25.3662 3.48444 -1.14293e-18)
(25.3339 3.48895 1.27939e-18)
(25.3003 3.49388 -4.08051e-18)
(25.2655 3.49924 2.41077e-20)
(25.2293 3.50507 -3.28983e-18)
(25.1918 3.51137 0)
(25.153 3.51817 0)
(25.1128 3.52549 0)
(25.0711 3.53336 0)
(25.0279 3.54179 2.66936e-18)
(24.9832 3.55079 0)
(24.9369 3.5604 3.25505e-18)
(24.889 3.57062 0)
(24.8393 3.58148 1.9514e-18)
(24.7879 3.59298 1.09067e-18)
(24.7346 3.60514 -1.21496e-18)
(24.6794 3.61797 1.26369e-18)
(24.6223 3.63147 1.40831e-18)
(24.5631 3.64566 -1.61158e-18)
(24.5018 3.66052 1.70012e-18)
(24.4383 3.67608 -9.72057e-19)
(24.3725 3.69231 2.07927e-18)
(24.3043 3.7092 -1.15713e-18)
(24.2335 3.72676 0)
(24.1602 3.74496 0)
(24.0842 3.76378 -3.05865e-18)
(24.0053 3.7832 -1.70213e-20)
(23.9234 3.80321 0)
(23.8383 3.82376 1.99554e-18)
(23.75 3.84482 -2.17695e-18)
(23.6581 3.86637 -1.19081e-18)
(23.5626 3.88835 0)
(23.4631 3.91073 0)
(23.3596 3.93346 0)
(23.2517 3.95649 8.89169e-19)
(23.1392 3.97977 9.77149e-19)
(23.0218 4.00323 1.07412e-18)
(22.8992 4.02682 1.18111e-18)
(22.7711 4.05046 -1.29918e-18)
(22.6371 4.07407 6.86697e-19)
(22.4968 4.09757 -3.05665e-20)
(22.3498 4.12087 1.72625e-18)
(22.1956 4.14388 -9.47517e-19)
(22.0337 4.16646 1.04019e-18)
(21.8637 4.18849 -1.13159e-18)
(21.6847 4.20985 -6.01385e-19)
(21.4963 4.23034 -2.09775e-18)
(21.2977 4.2498 7.84557e-19)
(21.088 4.268 -8.83791e-19)
(20.8664 4.28471 -2.20888e-20)
(20.6319 4.29962 3.2152e-18)
(20.3833 4.31242 -1.18164e-18)
(20.1194 4.32268 2.63504e-18)
(19.8388 4.32997 -2.15794e-18)
(19.5399 4.3337 8.28882e-19)
(19.221 4.33321 -9.361e-19)
(18.8799 4.32771 1.0045e-18)
(18.5143 4.31619 -1.74307e-18)
(18.1216 4.29743 1.26484e-18)
(17.6985 4.26995 -7.49475e-19)
(17.2416 4.23188 0)
(16.7466 4.18083 1.88488e-18)
(16.2084 4.11381 2.15424e-18)
(15.6212 4.02694 2.47499e-18)
(14.9781 3.91515 7.33745e-19)
(14.2705 3.77181 -3.33215e-18)
(13.4885 3.58786 -1.00132e-18)
(12.6199 3.35159 -2.32559e-18)
(11.6508 3.04493 3.48004e-18)
(10.5628 2.64868 1.71812e-18)
(9.33904 2.11642 -3.77082e-18)
(7.95339 1.44186 -2.11265e-18)
(6.40535 0.42098 -4.83901e-18)
(4.64039 -0.557736 7.33661e-18)
(25.666 3.4101 -2.20893e-18)
(25.6606 3.43478 -2.31959e-18)
(25.6632 3.47297 2.43978e-18)
(25.6492 3.46918 1.35417e-19)
(25.6344 3.46923 -3.05921e-18)
(25.6193 3.47411 3.22207e-18)
(25.6013 3.47728 3.6361e-18)
(25.5812 3.47978 -1.95951e-18)
(25.5595 3.48273 0)
(25.5364 3.48592 2.45325e-18)
(25.5119 3.4893 2.70456e-18)
(25.4861 3.49299 -1.49036e-18)
(25.459 3.49703 -1.64216e-18)
(25.4307 3.50144 -1.86584e-18)
(25.4012 3.50624 1.93675e-18)
(25.3704 3.51146 0)
(25.3385 3.51713 2.45332e-18)
(25.3054 3.52326 2.69189e-18)
(25.271 3.52987 0)
(25.2353 3.53699 -1.55714e-18)
(25.1983 3.54463 0)
(25.16 3.55283 -1.91859e-18)
(25.1203 3.56159 0)
(25.0792 3.57094 4.71804e-18)
(25.0366 3.58091 -5.04467e-18)
(24.9925 3.5915 -5.58704e-18)
(24.9468 3.60274 -3.16614e-18)
(24.8994 3.61465 1.68029e-18)
(24.8504 3.62724 -1.90122e-18)
(24.7996 3.64053 0)
(24.747 3.65453 0)
(24.6925 3.66925 -1.27842e-18)
(24.636 3.68471 2.66739e-18)
(24.5774 3.70091 1.48182e-18)
(24.5168 3.71785 0)
(24.4539 3.73555 0)
(24.3887 3.75399 -2.04547e-18)
(24.3211 3.77317 2.15888e-18)
(24.251 3.79309 -1.23379e-18)
(24.1782 3.81374 5.28681e-18)
(24.1027 3.8351 2.97201e-18)
(24.0243 3.85715 4.34849e-20)
(23.9428 3.87989 -1.7425e-18)
(23.8582 3.90328 -3.34806e-20)
(23.7702 3.92731 2.13929e-18)
(23.6787 3.95193 -2.31064e-18)
(23.5834 3.97713 1.307e-18)
(23.4842 4.00287 1.39274e-20)
(23.3809 4.02911 0)
(23.2731 4.0558 -1.68683e-18)
(23.1606 4.08291 -1.85535e-18)
(23.0432 4.11038 2.04136e-18)
(22.9204 4.13817 -1.09123e-18)
(22.7921 4.1662 -2.49563e-18)
(22.6578 4.19443 -3.46699e-20)
(22.5171 4.22276 1.54421e-18)
(22.3696 4.25114 -1.6366e-18)
(22.2148 4.27946 -9.39166e-19)
(22.0522 4.30764 2.99798e-18)
(21.8812 4.33555 1.08306e-18)
(21.7012 4.36307 1.21627e-18)
(21.5116 4.39005 1.37906e-18)
(21.3115 4.41633 -1.5098e-18)
(21.1002 4.44171 0)
(20.8767 4.46597 0)
(20.64 4.48885 -4.16746e-18)
(20.3889 4.51002 -1.16535e-18)
(20.1222 4.52913 0)
(19.8384 4.54574 0)
(19.5357 4.55931 -1.60969e-18)
(19.2125 4.56921 0)
(18.8665 4.57467 -3.03948e-18)
(18.4952 4.57472 1.11031e-18)
(18.096 4.56819 2.76231e-20)
(17.6654 4.55361 -3.6009e-18)
(17.1996 4.52913 8.04113e-19)
(16.6942 4.4924 -2.78591e-18)
(16.1438 4.44039 -3.19882e-18)
(15.5422 4.36919 -2.4745e-18)
(14.8819 4.27365 2.86326e-18)
(14.1538 4.1469 -3.34726e-18)
(13.3471 3.97962 1.97474e-18)
(12.4485 3.75936 2.35669e-18)
(11.4426 3.46743 -6.45265e-18)
(10.3095 3.0819 8.64789e-19)
(9.03086 2.55623 1.6677e-18)
(7.57703 1.8712 7.30067e-19)
(5.9548 0.839267 1.1471e-17)
(4.07031 -0.224095 -1.17922e-17)
(25.6819 3.44738 -1.90996e-18)
(25.6687 3.45742 -2.23665e-18)
(25.669 3.49019 -2.23849e-18)
(25.6546 3.48835 2.65188e-18)
(25.6385 3.48771 6.33456e-20)
(25.6226 3.49232 0)
(25.6044 3.49607 6.19161e-20)
(25.5841 3.49919 -1.92122e-18)
(25.5625 3.50275 2.0818e-18)
(25.5395 3.5067 0)
(25.5152 3.51092 2.64436e-18)
(25.4896 3.51549 -2.78622e-18)
(25.4628 3.52047 -3.20737e-18)
(25.4349 3.52587 1.6396e-18)
(25.4058 3.53172 0)
(25.3755 3.53803 0)
(25.344 3.54483 -2.28004e-18)
(25.3113 3.55215 -2.55669e-18)
(25.2775 3.55999 2.76101e-18)
(25.2423 3.56839 6.23497e-18)
(25.2059 3.57736 3.41955e-20)
(25.1682 3.58693 -3.70095e-18)
(25.1291 3.59712 -8.69368e-20)
(25.0886 3.60794 -6.65669e-20)
(25.0466 3.61943 4.96109e-20)
(25.0032 3.63159 2.74478e-18)
(24.9581 3.64445 0)
(24.9115 3.65803 1.67948e-18)
(24.8631 3.67234 -3.61746e-18)
(24.813 3.68741 -2.04737e-18)
(24.7611 3.70324 -8.9963e-20)
(24.7073 3.71985 -2.11265e-20)
(24.6515 3.73726 -2.66307e-18)
(24.5937 3.75546 0)
(24.5338 3.77449 0)
(24.4716 3.79432 -1.78656e-18)
(24.4071 3.81498 -1.64412e-20)
(24.3402 3.83645 0)
(24.2707 3.85875 0)
(24.1986 3.88186 -2.57322e-18)
(24.1238 3.90577 -1.41341e-18)
(24.046 3.93048 3.0455e-18)
(23.9651 3.95597 3.43128e-18)
(23.881 3.98223 -1.85811e-18)
(23.7936 4.00924 4.10446e-18)
(23.7025 4.03699 6.17608e-20)
(23.6077 4.06544 0)
(23.5089 4.09457 -1.36747e-18)
(23.4059 4.12435 2.95423e-18)
(23.2984 4.15475 3.32791e-18)
(23.1861 4.18574 -1.74008e-18)
(23.0688 4.21728 -2.00245e-18)
(22.9462 4.24933 2.20462e-18)
(22.8179 4.28183 0)
(22.6835 4.31474 -2.63351e-18)
(22.5427 4.34799 0)
(22.3949 4.38153 0)
(22.2398 4.41528 0)
(22.0767 4.44915 -1.98343e-18)
(21.9051 4.48306 1.1122e-18)
(21.7244 4.51689 1.21039e-18)
(21.5339 4.55051 0)
(21.3328 4.58379 6.13709e-20)
(21.1202 4.61654 2.11266e-20)
(20.8952 4.64858 0)
(20.6567 4.67967 1.00168e-18)
(20.4035 4.70951 1.13122e-18)
(20.1344 4.73779 -2.50318e-18)
(19.8477 4.76409 0)
(19.5419 4.78793 0)
(19.2148 4.80871 0)
(18.8644 4.8257 9.763e-19)
(18.488 4.83798 1.09444e-18)
(18.0827 4.84443 0)
(17.645 4.84364 -3.10618e-20)
(17.1709 4.83379 4.84384e-18)
(16.6557 4.81258 9.12381e-19)
(16.0936 4.77702 2.1438e-18)
(15.478 4.72317 -4.30919e-18)
(14.8009 4.64586 -4.47581e-20)
(14.0524 4.53808 8.31746e-19)
(13.2209 4.39027 -1.02721e-18)
(12.2918 4.18935 1.17283e-18)
(11.2482 3.91602 5.86538e-18)
(10.0681 3.54572 0)
(8.7311 3.03152 5.33091e-18)
(7.20455 2.34085 5.60573e-18)
(5.49733 1.30135 -9.15624e-18)
(3.47955 0.15618 6.91944e-18)
(25.6888 3.47842 3.77054e-18)
(25.6743 3.47946 0)
(25.6736 3.50743 2.19307e-18)
(25.6594 3.50692 5.0089e-18)
(25.6425 3.50606 -2.6496e-18)
(25.6261 3.51034 -2.99362e-18)
(25.6077 3.51452 6.7944e-18)
(25.5875 3.51822 -7.38857e-18)
(25.5659 3.52239 0)
(25.5431 3.52705 2.31185e-18)
(25.5191 3.53209 -2.43577e-18)
(25.4938 3.53753 0)
(25.4674 3.54343 0)
(25.4399 3.54981 0)
(25.4112 3.55668 3.61598e-18)
(25.3814 3.56407 0)
(25.3504 3.572 2.23457e-18)
(25.3183 3.58048 -2.48992e-18)
(25.285 3.58955 -8.15199e-20)
(25.2504 3.59921 -2.91446e-18)
(25.2146 3.6095 -3.38508e-18)
(25.1775 3.62042 7.09833e-18)
(25.1391 3.63202 0)
(25.0992 3.6443 4.2652e-18)
(25.0579 3.65728 4.74286e-18)
(25.0152 3.671 -8.7748e-20)
(24.9709 3.68547 2.81174e-18)
(24.9249 3.70071 0)
(24.8774 3.71674 0)
(24.828 3.73357 3.87432e-18)
(24.7769 3.75123 -1.98432e-18)
(24.7239 3.76972 -2.20633e-18)
(24.6689 3.78908 2.50162e-18)
(24.6118 3.8093 2.74938e-18)
(24.5527 3.8304 -3.12216e-18)
(24.4913 3.85239 5.01059e-18)
(24.4276 3.87527 5.49991e-20)
(24.3614 3.89906 0)
(24.2927 3.92374 -2.20364e-18)
(24.2214 3.94933 0)
(24.1472 3.97582 2.66173e-18)
(24.0701 4.00321 -5.91439e-18)
(23.9899 4.03149 -1.65972e-18)
(23.9065 4.06065 -5.15616e-20)
(23.8197 4.09068 -3.98985e-18)
(23.7292 4.12158 4.32496e-18)
(23.6349 4.15332 9.38996e-20)
(23.5366 4.18589 -2.56439e-18)
(23.4341 4.21927 1.41114e-18)
(23.327 4.25344 -1.55262e-18)
(23.2151 4.28837 1.75778e-18)
(23.0981 4.32404 -5.88679e-20)
(22.9758 4.36041 -8.40539e-20)
(22.8476 4.39745 2.28588e-18)
(22.7134 4.43512 2.5909e-18)
(22.5726 4.47338 -1.44745e-18)
(22.4247 4.51217 -6.30266e-20)
(22.2694 4.55144 -6.9927e-20)
(22.1061 4.59113 3.76921e-18)
(21.9341 4.63115 -1.07995e-18)
(21.7529 4.67142 -8.42146e-20)
(21.5617 4.71183 3.8458e-18)
(21.3597 4.75226 2.8978e-18)
(21.1461 4.79257 -4.78099e-18)
(20.9198 4.83259 -1.81655e-18)
(20.6798 4.87211 1.93856e-18)
(20.4249 4.91089 2.21851e-18)
(20.1536 4.94862 3.05314e-20)
(19.8644 4.98494 0)
(19.5556 5.01941 -1.57961e-18)
(19.2251 5.05149 2.58396e-18)
(18.8706 5.08049 -9.5491e-19)
(18.4894 5.10556 0)
(18.0784 5.12565 -1.27723e-18)
(17.634 5.13941 1.38481e-18)
(17.1519 5.14508 -3.24052e-18)
(16.6271 5.14044 -3.68405e-18)
(16.0536 5.12255 4.24409e-18)
(15.4242 5.08753 4.93391e-18)
(14.7304 5.03022 -1.39481e-20)
(13.9614 4.94354 3.39904e-18)
(13.1047 4.81777 1.03869e-18)
(12.1442 4.63933 -6.06976e-18)
(11.0615 4.38833 -3.00511e-18)
(9.83184 4.03781 0)
(8.43203 3.54002 -4.94837e-18)
(6.82684 2.84932 -7.69728e-18)
(5.0211 1.80669 1.15169e-17)
(2.85667 0.583169 0)
(25.6943 3.50395 0)
(25.6787 3.50005 0)
(25.6775 3.52408 0)
(25.6635 3.52461 -2.40995e-18)
(25.6464 3.52384 -2.74892e-18)
(25.6296 3.52793 2.89572e-18)
(25.6113 3.5325 -5.7946e-20)
(25.5912 3.53678 -3.55623e-18)
(25.5698 3.54156 -3.91752e-18)
(25.5473 3.54692 0)
(25.5235 3.55275 -4.74516e-18)
(25.4987 3.55905 0)
(25.4727 3.56586 2.87248e-18)
(25.4456 3.5732 0)
(25.4174 3.58109 -3.55441e-18)
(25.3881 3.58955 3.95691e-18)
(25.3577 3.59858 3.58579e-20)
(25.3262 3.60822 0)
(25.2935 3.61849 2.54437e-18)
(25.2595 3.62941 -2.8298e-18)
(25.2244 3.64099 -9.82891e-20)
(25.188 3.65326 -3.3847e-18)
(25.1502 3.66624 3.72215e-18)
(25.1111 3.67996 -8.28656e-18)
(25.0706 3.69444 -2.30601e-18)
(25.0286 3.7097 2.57194e-20)
(24.985 3.72576 -2.70126e-18)
(24.9399 3.74264 0)
(24.8931 3.76037 3.40385e-18)
(24.8446 3.77896 -3.46391e-18)
(24.7943 3.79844 -1.91026e-18)
(24.7421 3.81882 4.42303e-18)
(24.688 3.84011 -4.94478e-18)
(24.6318 3.86235 -2.81395e-18)
(24.5735 3.88553 -1.1949e-19)
(24.513 3.90967 6.35597e-18)
(24.4501 3.93478 0)
(24.3848 3.96088 0)
(24.3169 3.98797 -2.05709e-20)
(24.2464 4.01605 -1.57992e-20)
(24.1731 4.04513 -2.62034e-18)
(24.0968 4.07521 -2.7752e-20)
(24.0174 4.1063 -1.6203e-18)
(23.9347 4.13839 3.33411e-18)
(23.8486 4.17147 1.85801e-18)
(23.7589 4.20555 0)
(23.6653 4.24062 0)
(23.5676 4.27667 2.57516e-18)
(23.4657 4.31368 -5.52954e-18)
(23.3592 4.35165 0)
(23.2478 4.39057 -5.05031e-18)
(23.1313 4.43041 -1.94817e-18)
(23.0094 4.47117 2.00687e-18)
(22.8816 4.5128 0)
(22.7476 4.5553 2.46408e-18)
(22.607 4.59863 -1.40381e-18)
(22.4594 4.64275 3.04039e-18)
(22.3041 4.68763 -4.97105e-18)
(22.1407 4.73322 -3.37351e-20)
(21.9686 4.77946 0)
(21.7871 4.82628 -2.29742e-18)
(21.5955 4.87361 -2.54778e-18)
(21.3929 4.92134 1.43443e-18)
(21.1785 4.96936 1.97183e-20)
(20.9513 5.01753 1.70112e-18)
(20.7101 5.06569 -3.89754e-18)
(20.4537 5.11361 1.01074e-18)
(20.1807 5.16104 2.45174e-18)
(19.8894 5.20768 -1.32364e-18)
(19.578 5.25311 0)
(19.2444 5.29686 3.38773e-18)
(18.8862 5.33831 3.82052e-18)
(18.5005 5.37669 0)
(18.0843 5.411 -1.26377e-18)
(17.6336 5.43996 2.10077e-20)
(17.1439 5.46194 -4.75781e-18)
(16.61 5.47479 2.7536e-18)
(16.0255 5.47567 2.09446e-18)
(15.3827 5.46079 -9.88094e-18)
(14.6723 5.42503 -1.49136e-18)
(13.883 5.36129 -8.80954e-19)
(13.001 5.25975 -4.14678e-18)
(12.0087 5.10641 4.93393e-18)
(10.8856 4.8808 -5.47203e-18)
(9.60404 4.55369 9.65164e-19)
(8.1373 4.07582 0)
(6.44607 3.38918 0)
(4.52355 2.34726 1.53113e-18)
(2.20172 1.04945 -3.24897e-18)
(25.6987 3.52522 0)
(25.6822 3.51874 0)
(25.6807 3.5396 0)
(25.6673 3.54117 1.90375e-19)
(25.6501 3.5408 -2.55748e-18)
(25.6332 3.54489 5.73695e-18)
(25.6151 3.54987 -6.26704e-18)
(25.5952 3.55475 1.04926e-17)
(25.5741 3.56016 1.19079e-19)
(25.5519 3.56623 0)
(25.5285 3.57285 4.67778e-18)
(25.5041 3.58 2.60307e-18)
(25.4786 3.58772 -5.57508e-18)
(25.452 3.59602 0)
(25.4244 3.60491 3.46366e-18)
(25.3957 3.61441 -3.65043e-18)
(25.3659 3.62454 4.23114e-20)
(25.335 3.63533 -4.41585e-18)
(25.3029 3.64678 2.47352e-20)
(25.2697 3.65893 8.87106e-20)
(25.2353 3.67179 -1.07206e-19)
(25.1996 3.68539 6.56752e-18)
(25.1626 3.69975 -9.57193e-20)
(25.1242 3.71489 7.96749e-18)
(25.0845 3.73084 0)
(25.0433 3.74763 0)
(25.0006 3.76526 0)
(24.9563 3.78378 0)
(24.9104 3.80319 -6.43021e-18)
(24.8628 3.82353 7.01796e-18)
(24.8134 3.84482 7.77163e-18)
(24.7621 3.86706 -2.13111e-18)
(24.7089 3.8903 -4.69612e-18)
(24.6536 3.91453 2.52144e-18)
(24.5963 3.93979 0)
(24.5367 3.96608 -9.386e-18)
(24.4747 3.99343 -3.50804e-18)
(24.4104 4.02184 -2.10358e-20)
(24.3435 4.05134 0)
(24.2739 4.08192 5.89553e-20)
(24.2014 4.1136 0)
(24.1261 4.1464 -2.80347e-18)
(24.0476 4.18031 6.01895e-18)
(23.9658 4.21534 -3.36216e-18)
(23.8805 4.25149 -1.86607e-18)
(23.7916 4.28878 -8.05898e-20)
(23.6988 4.32719 2.17182e-18)
(23.602 4.36674 0)
(23.5008 4.40743 -2.65164e-18)
(23.395 4.44924 0)
(23.2844 4.49218 6.51721e-18)
(23.1685 4.53624 -1.8355e-18)
(23.0472 4.58142 1.94473e-18)
(22.92 4.62771 2.23485e-18)
(22.7865 4.67509 -4.73171e-18)
(22.6463 4.72354 -2.61816e-18)
(22.499 4.77307 0)
(22.3441 4.82363 3.29767e-18)
(22.1809 4.8752 -1.82527e-18)
(22.0089 4.92775 0)
(21.8274 4.98122 -2.1991e-18)
(21.6357 5.03557 0)
(21.4329 5.09073 0)
(21.2181 5.14661 -1.55978e-18)
(20.9903 5.2031 3.40307e-18)
(20.7483 5.26006 1.9939e-18)
(20.4909 5.31734 9.29129e-20)
(20.2165 5.37472 6.75764e-20)
(19.9235 5.43194 0)
(19.61 5.48865 0)
(19.2739 5.54445 -5.00385e-18)
(18.9126 5.59877 -3.73842e-18)
(18.5232 5.65094 -6.37715e-18)
(18.1024 5.70004 -1.254e-18)
(17.6462 5.74491 4.16992e-18)
(17.1497 5.78402 3.21381e-18)
(16.6076 5.81535 9.44508e-19)
(16.013 5.83619 -5.32379e-18)
(15.3577 5.84286 4.99429e-18)
(14.6319 5.83037 0)
(13.8233 5.79171 -3.46031e-18)
(12.9169 5.71704 6.35655e-18)
(11.8936 5.59206 -2.50192e-18)
(10.7305 5.39589 6.44637e-18)
(9.39665 5.09734 0)
(7.86108 4.64537 0)
(6.07697 3.97197 1.06115e-18)
(4.01034 2.94244 -1.72923e-18)
(1.5577 1.555 -2.59435e-18)
(25.7029 3.543 0)
(25.6855 3.53555 0)
(25.6836 3.55389 -4.06633e-18)
(25.6708 3.55651 9.22139e-18)
(25.6537 3.55681 -1.00176e-17)
(25.6369 3.56108 -5.50506e-18)
(25.6191 3.56653 -3.12244e-18)
(25.5995 3.57204 3.33008e-18)
(25.5788 3.57812 1.58921e-19)
(25.5569 3.58492 -8.13611e-18)
(25.5341 3.59233 -3.22814e-20)
(25.5101 3.60033 -4.84708e-18)
(25.4851 3.60895 -2.56715e-18)
(25.4591 3.61819 1.88832e-20)
(25.4321 3.62808 1.18267e-19)
(25.404 3.63862 -7.18608e-18)
(25.3749 3.64984 7.75703e-18)
(25.3446 3.66175 1.59016e-19)
(25.3133 3.67438 -2.23697e-18)
(25.2808 3.68774 -7.7392e-18)
(25.2472 3.70187 -2.92369e-18)
(25.2123 3.71677 -3.12411e-18)
(25.1761 3.73249 -3.53543e-18)
(25.1386 3.74904 3.07173e-20)
(25.0997 3.76644 -1.25925e-17)
(25.0594 3.78473 6.91191e-18)
(25.0176 3.80393 -5.00776e-18)
(24.9742 3.82406 -1.03434e-19)
(24.9293 3.84515 -3.7444e-20)
(24.8826 3.86722 6.78016e-18)
(24.8341 3.8903 -7.42723e-18)
(24.7838 3.9144 -4.15182e-18)
(24.7316 3.93956 9.01535e-18)
(24.6773 3.96579 -2.42635e-18)
(24.621 3.99312 -5.45953e-18)
(24.5624 4.02156 5.96758e-18)
(24.5015 4.05113 3.33567e-18)
(24.4382 4.08186 3.6679e-18)
(24.3723 4.11376 -3.92032e-18)
(24.3037 4.14685 2.21799e-18)
(24.2323 4.18114 0)
(24.1579 4.21665 9.4287e-20)
(24.0804 4.25339 -2.85778e-18)
(23.9996 4.29137 3.16114e-18)
(23.9154 4.33061 1.80221e-18)
(23.8275 4.37112 -3.89006e-18)
(23.7356 4.4129 2.09891e-18)
(23.6397 4.45598 2.40738e-18)
(23.5394 4.50035 -2.5706e-18)
(23.4346 4.54603 2.8086e-18)
(23.3248 4.59302 -6.31279e-18)
(23.2098 4.64133 1.77934e-18)
(23.0892 4.69097 -1.88578e-18)
(22.9628 4.74194 -2.16931e-18)
(22.83 4.79425 7.07182e-18)
(22.6906 4.84789 -5.1066e-18)
(22.5439 4.90286 -1.46664e-18)
(22.3895 4.95917 -1.58262e-18)
(22.2268 5.01679 1.79988e-18)
(22.0552 5.07573 -7.77171e-18)
(21.8741 5.13595 4.31535e-18)
(21.6825 5.19742 -2.46354e-18)
(21.4798 5.26011 3.90673e-18)
(21.265 5.32397 4.4156e-18)
(21.037 5.38893 0)
(20.7946 5.45488 0)
(20.5366 5.52171 2.12908e-18)
(20.2613 5.58926 -2.28245e-18)
(19.9672 5.65731 2.59289e-18)
(19.6522 5.72561 0)
(19.3142 5.7938 5.72102e-20)
(18.9505 5.86141 -3.72623e-18)
(18.5581 5.92786 -1.02426e-18)
(18.1334 5.99235 1.18691e-18)
(17.6725 6.05382 0)
(17.1702 6.11091 4.79906e-18)
(16.6208 6.16174 -1.79706e-18)
(16.0172 6.20377 1.09836e-18)
(15.3506 6.23353 -2.5076e-18)
(14.6106 6.24623 1.44214e-18)
(13.784 6.23501 3.55011e-18)
(12.8546 6.19023 0)
(11.8014 6.09747 0)
(10.5995 5.93571 6.67247e-18)
(9.21344 5.67231 -8.77537e-18)
(7.60848 5.25498 0)
(5.7246 4.61129 0)
(3.49488 3.60947 -1.80941e-17)
(0.949624 2.1012 -5.71335e-17)
(25.707 3.55792 3.40041e-18)
(25.6888 3.5506 -7.08466e-21)
(25.6864 3.56695 -4.05359e-18)
(25.6741 3.57061 0)
(25.6574 3.57178 -5.02565e-18)
(25.6408 3.57642 1.07513e-17)
(25.6232 3.58239 -5.84841e-18)
(25.6041 3.5886 1.14041e-19)
(25.5838 3.59538 -3.50297e-18)
(25.5624 3.60293 0)
(25.54 3.61114 4.37142e-18)
(25.5167 3.62 4.80484e-18)
(25.4923 3.62951 -2.5139e-18)
(25.4669 3.6397 2.61666e-18)
(25.4405 3.65057 6.27453e-18)
(25.4131 3.66214 -6.93889e-18)
(25.3847 3.67443 3.61074e-18)
(25.3552 3.68745 4.2395e-18)
(25.3246 3.70123 0)
(25.2929 3.7158 1.00929e-17)
(25.2601 3.73117 -5.56712e-18)
(25.226 3.74737 9.09005e-18)
(25.1907 3.76442 0)
(25.1541 3.78236 -3.76924e-18)
(25.1161 3.8012 3.94804e-18)
(25.0768 3.82098 4.37035e-18)
(25.0359 3.84171 2.48874e-18)
(24.9935 3.86344 -2.73626e-18)
(24.9496 3.88619 3.00881e-18)
(24.9039 3.90997 0)
(24.8565 3.93483 3.52359e-18)
(24.8072 3.96078 -1.49641e-19)
(24.756 3.98785 1.89728e-18)
(24.7029 4.01606 -9.77359e-20)
(24.6476 4.04545 7.90255e-18)
(24.5901 4.07603 1.17787e-19)
(24.5303 4.10783 1.29348e-19)
(24.4681 4.14087 -6.84617e-18)
(24.4033 4.17517 3.8908e-18)
(24.3358 4.21076 -2.15383e-18)
(24.2656 4.24766 -9.43037e-20)
(24.1923 4.28589 5.09549e-18)
(24.1159 4.32546 -2.87081e-18)
(24.0363 4.36641 -3.15124e-18)
(23.9531 4.40874 -1.24673e-19)
(23.8663 4.45248 9.29524e-18)
(23.7756 4.49765 -4.14011e-18)
(23.6807 4.54426 2.2351e-18)
(23.5815 4.59235 0)
(23.4777 4.64191 -2.73125e-18)
(23.3689 4.69298 6.11278e-18)
(23.2549 4.74557 1.72431e-18)
(23.1354 4.79971 -3.59947e-18)
(23.0099 4.8554 -2.0197e-18)
(22.878 4.91268 0)
(22.7394 4.97154 2.55144e-18)
(22.5936 5.03202 9.84144e-20)
(22.44 5.09413 9.84762e-20)
(22.278 5.15787 0)
(22.1071 5.22327 7.60671e-18)
(21.9265 5.29032 0)
(21.7355 5.35902 2.32238e-18)
(21.5332 5.42935 -2.64668e-18)
(21.3186 5.50132 -2.95008e-18)
(21.0907 5.57489 -1.55349e-18)
(20.8483 5.64999 -1.78367e-18)
(20.59 5.72657 0)
(20.3143 5.80451 0)
(20.0195 5.88367 -2.59862e-18)
(19.7034 5.96386 -1.48573e-18)
(19.3639 6.04481 1.66589e-18)
(18.9983 6.12614 3.74501e-18)
(18.6033 6.20737 6.41886e-18)
(18.1755 6.28784 -2.35188e-18)
(17.7104 6.36665 2.73141e-18)
(17.203 6.44258 -5.27457e-20)
(16.647 6.51397 3.64192e-18)
(16.035 6.5785 0)
(15.3578 6.63297 0)
(14.6043 6.67286 -5.92267e-18)
(13.7603 6.69166 1.84482e-18)
(12.8082 6.68002 1.08743e-18)
(11.7253 6.62375 1.32663e-18)
(10.4839 6.50201 -5.21721e-18)
(9.04403 6.28129 -2.19271e-18)
(7.36675 5.90968 1.16011e-17)
(5.37275 5.3147 -1.76953e-17)
(3.00674 4.34514 -3.05565e-18)
(0.327005 2.74381 1.66824e-19)
(25.7109 3.57047 2.66873e-18)
(25.6922 3.56402 0)
(25.6892 3.57882 3.96513e-18)
(25.6775 3.5835 0)
(25.6611 3.58569 4.88648e-18)
(25.6448 3.59085 -5.14785e-18)
(25.6276 3.59743 2.88029e-18)
(25.609 3.60436 6.39356e-18)
(25.5891 3.6119 -6.9248e-18)
(25.5683 3.62021 -1.55599e-19)
(25.5465 3.62924 4.08704e-18)
(25.5237 3.63896 0)
(25.5 3.64937 5.10242e-18)
(25.4753 3.6605 -5.60591e-18)
(25.4496 3.67234 -6.08143e-18)
(25.4229 3.68493 3.24591e-18)
(25.3953 3.69827 -1.30644e-19)
(25.3666 3.71239 0)
(25.3368 3.72731 -4.3455e-18)
(25.306 3.74306 -9.71526e-18)
(25.274 3.75966 2.71489e-18)
(25.2408 3.77713 -5.8695e-18)
(25.2065 3.7955 -3.17074e-18)
(25.1708 3.8148 0)
(25.1338 3.83506 3.83193e-18)
(25.0954 3.85631 4.2129e-18)
(25.0556 3.87857 0)
(25.0142 3.90188 0)
(24.9713 3.92626 0)
(24.9267 3.95174 1.23887e-19)
(24.8804 3.97836 -3.36248e-18)
(24.8323 4.00614 -7.57091e-18)
(24.7822 4.0351 -4.23876e-18)
(24.7302 4.06528 4.50417e-18)
(24.6761 4.09672 -2.47747e-18)
(24.6198 4.12943 -2.72541e-18)
(24.5612 4.16344 3.11742e-18)
(24.5001 4.19878 2.50844e-19)
(24.4365 4.23549 -3.62299e-18)
(24.3703 4.27358 -6.07323e-18)
(24.3012 4.31308 2.19453e-18)
(24.2292 4.35402 0)
(24.1541 4.39644 -2.77131e-18)
(24.0756 4.44034 3.02706e-18)
(23.9937 4.48577 -3.3432e-18)
(23.9081 4.53276 -3.68358e-18)
(23.8186 4.58131 -3.93376e-18)
(23.725 4.63148 0)
(23.627 4.68328 -2.39328e-18)
(23.5244 4.73675 2.72358e-18)
(23.4168 4.79192 -8.95269e-20)
(23.304 4.84881 0)
(23.1856 4.90746 1.82051e-18)
(23.0612 4.9679 4.00434e-18)
(22.9305 5.03017 -4.43091e-18)
(22.793 5.0943 2.40156e-18)
(22.6482 5.16032 5.52626e-18)
(22.4956 5.22827 -5.91741e-18)
(22.3346 5.29819 0)
(22.1645 5.3701 -3.75899e-18)
(21.9848 5.44404 -4.07046e-18)
(21.7946 5.52004 -2.32563e-18)
(21.5929 5.59811 -2.61945e-18)
(21.3789 5.67829 1.33611e-18)
(21.1515 5.76057 4.79399e-18)
(20.9094 5.84496 -1.82973e-18)
(20.6513 5.93143 5.91958e-18)
(20.3755 6.01993 -2.30601e-18)
(20.0804 6.11041 3.77833e-18)
(19.7637 6.20271 1.42777e-18)
(19.4233 6.29668 3.27013e-18)
(19.0562 6.39204 0)
(18.6593 6.48844 2.14548e-18)
(18.2289 6.58535 -1.109e-18)
(17.7604 6.68202 -5.51923e-18)
(17.2485 6.77745 -1.4143e-19)
(16.6867 6.87018 -3.80392e-18)
(16.0672 6.95818 9.92171e-19)
(15.3804 7.03854 2.5408e-18)
(14.6143 7.10712 1.06083e-17)
(13.7538 7.15778 -1.88064e-18)
(12.7801 7.18164 -1.12361e-17)
(11.6682 7.16488 -5.60324e-18)
(10.3878 7.0871 7.28921e-18)
(8.89368 6.91427 2.00596e-17)
(7.14192 6.59665 -1.49875e-17)
(5.03125 6.0542 2.83539e-17)
(2.5668 5.0965 -2.9288e-18)
(-0.370948 3.48 4.26878e-17)
(25.7148 3.58103 5.35668e-18)
(25.6959 3.57596 3.77273e-18)
(25.6921 3.58959 3.8384e-18)
(25.6809 3.59524 0)
(25.665 3.59855 0)
(25.6489 3.60436 0)
(25.6322 3.61161 5.68688e-18)
(25.6141 3.61931 -2.89586e-18)
(25.5948 3.62763 3.29384e-18)
(25.5746 3.63674 -3.7483e-18)
(25.5534 3.6466 3.94976e-18)
(25.5313 3.65718 4.51283e-18)
(25.5082 3.66848 -4.75575e-18)
(25.4842 3.68054 0)
(25.4593 3.69335 2.85683e-18)
(25.4335 3.70694 -4.07965e-21)
(25.4066 3.72133 -3.46126e-18)
(25.3788 3.73653 -3.8021e-18)
(25.3499 3.75257 4.33203e-18)
(25.3199 3.76948 1.71638e-19)
(25.2889 3.78729 2.62643e-18)
(25.2567 3.80601 1.06625e-19)
(25.2233 3.82568 3.1615e-18)
(25.1886 3.84632 -3.34808e-18)
(25.1527 3.86798 -7.65557e-18)
(25.1153 3.89067 3.88981e-18)
(25.0766 3.91443 4.63519e-18)
(25.0363 3.9393 -7.23293e-18)
(24.9945 3.96529 -2.68851e-18)
(24.9511 3.99245 3.07107e-18)
(24.9059 4.02081 -3.25307e-18)
(24.859 4.05039 1.49385e-19)
(24.8102 4.08124 -3.93411e-18)
(24.7593 4.11338 -8.82416e-18)
(24.7065 4.14684 2.47205e-18)
(24.6514 4.18166 -9.68496e-21)
(24.5941 4.21787 -1.20985e-19)
(24.5343 4.2555 9.64092e-18)
(24.4721 4.29459 3.63878e-18)
(24.4071 4.33517 2.14861e-18)
(24.3394 4.37726 -2.11685e-18)
(24.2687 4.42092 0)
(24.1949 4.46616 2.67606e-18)
(24.1178 4.51302 1.0573e-19)
(24.0373 4.56154 3.12405e-18)
(23.953 4.61176 3.58355e-18)
(23.8649 4.66371 -3.65982e-18)
(23.7727 4.71742 0)
(23.676 4.77294 -1.28972e-20)
(23.5748 4.83032 -1.07987e-19)
(23.4686 4.88958 -3.0388e-18)
(23.3571 4.95077 6.35886e-18)
(23.2401 5.01394 1.10011e-20)
(23.117 5.07915 -3.82231e-18)
(22.9877 5.14642 -2.0337e-18)
(22.8515 5.21582 -4.68224e-18)
(22.708 5.28741 2.60175e-18)
(22.5566 5.36122 -2.34196e-20)
(22.3969 5.43733 6.40155e-18)
(22.2281 5.51579 -1.85337e-18)
(22.0495 5.59665 6.06527e-18)
(21.8604 5.67998 0)
(21.6598 5.76584 0)
(21.4468 5.85429 0)
(21.2203 5.94535 -3.08953e-18)
(20.979 6.0391 0)
(20.7215 6.13556 -3.99364e-18)
(20.4462 6.23475 4.37624e-18)
(20.1514 6.33665 -1.28163e-18)
(19.8348 6.44124 -1.47857e-18)
(19.4941 6.54843 -1.64274e-18)
(19.1264 6.65809 3.50809e-18)
(18.7285 6.76995 2.03058e-18)
(18.2965 6.88365 4.70276e-18)
(17.8256 6.99863 0)
(17.3104 7.1141 -3.20363e-18)
(16.7442 7.22886 -1.898e-18)
(16.1188 7.34117 2.11319e-18)
(15.4241 7.44852 -1.32059e-18)
(14.6475 7.54716 -4.70802e-18)
(13.7729 7.6315 0)
(12.7803 7.69323 1.71673e-19)
(11.6424 7.71915 4.42136e-18)
(10.3264 7.68957 -1.16583e-17)
(8.78155 7.57092 -1.50623e-17)
(6.95751 7.31509 -1.70067e-17)
(4.73149 6.82618 3.26784e-17)
(2.14498 5.91984 -3.16295e-17)
(-1.11236 4.32815 -1.45173e-17)
(25.7186 3.58989 3.21943e-18)
(25.6996 3.58654 -1.10928e-17)
(25.6952 3.59932 -3.83543e-18)
(25.6843 3.60591 0)
(25.669 3.61039 0)
(25.6533 3.61696 -4.88055e-18)
(25.6371 3.62492 -1.08329e-17)
(25.6195 3.63342 5.80856e-18)
(25.6009 3.64255 -3.29151e-18)
(25.5813 3.65248 0)
(25.5608 3.66317 3.81712e-18)
(25.5393 3.67462 0)
(25.517 3.68682 0)
(25.4938 3.6998 0)
(25.4697 3.71357 -2.8686e-18)
(25.4447 3.72815 6.18046e-18)
(25.4187 3.74356 3.45957e-18)
(25.3918 3.75983 -9.19001e-21)
(25.3638 3.77698 8.20071e-18)
(25.3348 3.79503 -4.23234e-18)
(25.3047 3.81402 2.52614e-18)
(25.2735 3.83397 -8.10048e-18)
(25.2412 3.85491 -1.23738e-19)
(25.2076 3.87688 6.56466e-18)
(25.1727 3.8999 -3.68696e-18)
(25.1365 3.92402 -8.09437e-18)
(25.0989 3.94926 1.30026e-17)
(25.0598 3.97565 1.89861e-19)
(25.0192 4.00324 2.69471e-18)
(24.9769 4.03205 -5.68302e-18)
(24.933 4.06212 3.2537e-18)
(24.8873 4.09349 3.57892e-18)
(24.8398 4.12619 0)
(24.7903 4.16026 6.50227e-18)
(24.7387 4.19573 -6.86961e-18)
(24.685 4.23264 -2.51948e-18)
(24.6291 4.27103 2.89306e-18)
(24.5707 4.31094 -3.04901e-18)
(24.5098 4.35239 -3.36528e-18)
(24.4463 4.39544 -3.70401e-18)
(24.38 4.44012 2.12742e-18)
(24.3108 4.48646 -2.24917e-18)
(24.2385 4.53452 -1.05088e-19)
(24.1629 4.58433 2.73254e-18)
(24.0838 4.63593 -6.14437e-18)
(24.001 4.68937 3.32503e-18)
(23.9144 4.74469 3.80962e-18)
(23.8237 4.80195 6.16249e-18)
(23.7286 4.86118 -4.47348e-18)
(23.6289 4.92245 2.57561e-18)
(23.5242 4.9858 -5.46483e-18)
(23.4143 5.05129 3.02493e-18)
(23.2988 5.11899 -3.46811e-18)
(23.1774 5.18895 5.77012e-18)
(23.0496 5.26123 6.49256e-20)