/*--------------------------------*- C++ -*----------------------------------*\
  =========                 |
  \\      /  F ield         | OpenFOAM: The Open Source CFD Toolbox
   \\    /   O peration     | Website:  https://openfoam.org
    \\  /    A nd           | Version:  11
     \\/     M anipulation  |
\*---------------------------------------------------------------------------*/
FoamFile
{
    format      ascii;
    class       volScalarField;
    location    "500";
    object      p;
}
// * * * * * * * * * * * * * * * * * * * * * * * * * * * * * * * * * * * * * //

dimensions      [0 2 -2 0 0 0 0];

internalField   nonuniform List<scalar> 
31595
(
12.6037
8.54429
9.39774
9.80072
10.3987
10.7029
11.2853
11.7746
12.3363
12.8948
13.4931
14.1065
14.7494
15.4161
16.1108
16.833
17.5847
18.3663
19.1794
20.0249
20.9039
21.8176
22.767
23.7532
24.7774
25.8405
26.9439
28.0885
29.2757
30.5064
31.7819
33.1035
34.4726
35.8905
37.3585
38.8784
40.4518
42.0805
43.7664
45.5116
47.3185
49.1894
51.1271
53.1344
55.2145
57.3706
59.6064
61.9258
64.333
66.8323
69.4286
72.127
74.9329
77.8521
80.891
84.056
87.3543
90.7936
94.3818
98.1278
102.041
106.131
110.409
114.886
119.575
124.489
129.643
135.052
140.733
146.704
152.985
159.597
166.563
173.908
181.657
189.838
198.48
207.613
217.265
227.462
238.223
249.556
261.446
273.837
286.617
299.506
312.19
323.374
333.29
10.4807
9.1568
8.87804
9.68699
10.2097
10.61
11.1225
11.6456
12.1831
12.7403
13.3228
13.9272
14.5561
15.2101
15.8906
16.5984
17.3348
18.1008
18.8975
19.7261
20.5876
21.4831
22.4137
23.3806
24.3848
25.4275
26.51
27.6331
28.7983
30.0067
31.2597
32.5584
33.9042
35.2988
36.7435
38.24
39.7902
41.3958
43.0587
44.7813
46.5659
48.415
50.3313
52.3177
54.3775
56.514
58.7308
61.032
63.4216
65.9043
68.4848
71.1683
73.9603
76.8666
79.8936
83.0481
86.3372
89.7686
93.3505
97.0918
101.002
105.092
109.371
113.853
118.549
123.474
128.643
134.071
139.776
145.776
152.094
158.75
165.769
173.177
181.001
189.272
198.02
207.277
217.076
227.444
238.406
249.973
262.133
274.832
287.948
301.197
314.199
325.646
335.371
9.45526
9.10579
8.69755
9.47843
10.0503
10.4742
10.9648
11.4881
12.0164
12.5635
13.1334
13.7255
14.3405
14.9803
15.6457
16.338
17.0581
17.8073
18.5867
19.3972
20.24
21.1162
22.027
22.9734
23.9565
24.9776
26.0377
27.1382
28.2802
29.4649
30.6936
31.9679
33.2891
34.6586
36.0782
37.5495
39.0742
40.6543
42.292
43.9895
45.7491
47.5734
49.4652
51.4275
53.4634
55.5766
57.7705
60.0491
62.4168
64.8781
67.4377
70.1009
72.8734
75.761
78.77
81.9072
85.1801
88.5964
92.1643
95.893
99.7921
103.872
108.144
112.62
117.313
122.238
127.409
132.844
138.56
144.577
150.917
157.603
164.659
172.114
179.996
188.338
197.174
206.537
216.462
226.984
238.129
249.914
262.329
275.326
288.776
302.394
315.729
327.487
337.017
9.03637
8.96667
8.58483
9.28811
9.88866
10.3202
10.797
11.3107
11.8301
12.3648
12.9212
13.4992
14.0994
14.7236
15.3729
16.0484
16.7513
17.4825
18.2433
19.0346
19.8576
20.7134
21.6032
22.5279
23.4888
24.4869
25.5236
26.6001
27.7175
28.8772
30.0805
31.3289
32.6238
33.9667
35.3594
36.8036
38.3012
39.854
41.4643
43.1344
44.8666
46.6636
48.5283
50.4636
52.4728
54.5593
56.7269
58.9796
61.3216
63.7574
66.2921
68.9308
71.6791
74.543
77.5289
80.6437
83.8946
87.2898
90.8374
94.5468
98.4278
102.491
106.747
111.209
115.891
120.806
125.97
131.401
137.117
143.138
149.487
156.187
163.266
170.751
178.675
187.07
195.972
205.42
215.451
226.103
237.407
249.386
262.034
275.311
289.081
303.07
316.747
328.851
338.189
8.78606
8.86082
8.49219
9.12344
9.72617
10.1583
10.6189
11.1186
11.6264
12.147
12.6883
13.2508
13.835
14.4425
15.0745
15.7322
16.4165
17.1288
17.8699
18.641
19.4431
20.2774
21.1449
22.0469
22.9844
23.9585
24.9706
26.0218
27.1133
28.2466
29.4231
30.6441
31.9112
33.226
34.5902
36.0055
37.4739
38.9975
40.5784
42.2188
43.9213
45.6886
47.5235
49.429
51.4084
53.4653
55.6033
57.8265
60.1391
62.5458
65.0515
67.6614
70.3811
73.2167
76.1747
79.2619
82.4857
85.8541
89.3757
93.0597
96.916
100.955
105.189
109.63
114.292
119.189
124.338
129.756
135.462
141.477
147.825
154.53
161.619
169.123
177.074
185.509
194.465
203.982
214.103
224.869
236.316
248.473
261.339
274.881
288.96
303.313
317.339
329.833
338.858
8.62065
8.78728
8.41549
8.97431
9.56325
9.98885
10.4303
10.9125
11.4055
11.9104
12.4349
12.9804
13.5473
14.1369
14.7505
15.3892
16.054
16.7461
17.4665
18.2163
18.9964
19.8081
20.6523
21.5303
22.4431
23.392
24.3781
25.4027
26.4672
27.5727
28.7209
29.9131
31.1509
32.4358
33.7697
35.1544
36.5918
38.084
39.6332
41.2417
42.9121
44.647
46.4493
48.3222
50.2689
52.2928
54.3978
56.5879
58.8675
61.241
63.7135
66.2902
68.9768
71.7792
74.7041
77.7584
80.9494
84.2852
87.7745
91.4264
95.2511
99.2594
103.463
107.875
112.508
117.378
122.502
127.897
133.582
139.58
145.914
152.609
159.695
167.202
175.165
183.621
192.611
202.177
212.366
223.223
234.789
247.098
260.156
273.937
288.304
303.003
317.382
330.307
338.866
8.48057
8.71901
8.34574
8.83206
9.39693
9.81086
10.2308
10.6924
11.1681
11.6553
12.1616
12.6887
13.2369
13.8074
14.4015
15.0201
15.6643
16.3352
17.0338
17.7611
18.5182
19.3061
20.1259
20.9787
21.8657
22.788
23.7469
24.7436
25.7794
26.8558
27.974
29.1358
30.3425
31.5958
32.8976
34.2496
35.6539
37.1125
38.6277
40.2018
41.8374
43.5371
45.304
47.141
49.0515
51.039
53.1073
55.2603
57.5026
59.8385
62.2731
64.8117
67.4598
70.2237
73.1097
76.1248
79.2764
82.5726
86.0222
89.6343
93.4192
97.3877
101.552
105.924
110.518
115.35
120.436
125.795
131.445
137.41
143.713
150.381
157.443
164.932
172.883
181.335
190.331
199.917
210.141
221.052
232.697
245.116
258.322
272.298
286.908
301.913
316.616
329.812
338.297
8.34604
8.64145
8.27409
8.68993
9.22357
9.62214
10.0191
10.4578
10.9139
11.3819
11.8685
12.3759
12.9043
13.4546
14.028
14.6255
15.2481
15.8967
16.5724
17.2762
18.009
18.772
19.5662
20.3926
21.2526
22.1471
23.0774
24.0448
25.0507
26.0964
27.1832
28.3128
29.4868
30.7067
31.9744
33.2918
34.6608
36.0836
37.5623
39.0995
40.6976
42.3594
44.0878
45.8857
47.7568
49.7043
51.7321
53.8441
56.0449
58.3388
60.7308
63.2263
65.8308
68.5504
71.3916
74.3614
77.467
80.7169
84.1193
87.6837
91.4204
95.3401
99.4548
103.778
108.322
113.104
118.14
123.448
129.049
134.965
141.22
147.842
154.86
162.309
170.223
178.644
187.617
197.188
207.41
218.335
230.015
242.495
255.794
269.907
284.697
299.943
314.889
328.201
336.94
8.20464
8.54354
8.19151
8.54192
9.03961
9.42027
9.79353
10.2079
10.6425
11.0901
11.5558
12.0424
12.5499
13.079
13.6307
14.2061
14.806
15.4314
16.0833
16.7624
17.47
18.2071
18.9745
19.7735
20.6052
21.4706
22.3712
23.3081
24.2826
25.2961
26.3501
27.446
28.5855
29.7703
31.0022
32.2831
33.6148
34.9997
36.4398
37.9378
39.4959
41.1172
42.8043
44.5605
46.389
48.2933
50.2773
52.3448
54.5003
56.7484
59.0938
61.5419
64.0982
66.7689
69.5604
72.4795
75.5336
78.7311
82.0803
85.5908
89.2724
93.1362
97.1941
101.459
105.945
110.668
115.643
120.891
126.431
132.286
138.481
145.043
152.002
159.392
167.252
175.621
184.547
194.079
204.271
215.178
226.856
239.355
252.7
266.891
281.791
297.188
312.217
325.744
334.205
8.05072
8.41989
8.09156
8.38314
8.84204
9.20297
9.55255
9.9416
10.3536
10.7796
11.2236
11.6884
12.174
12.6809
13.21
13.7624
14.3387
14.9399
15.5668
16.2205
16.9018
17.6117
18.3514
19.1217
19.924
20.7592
21.6287
22.5336
23.4753
24.4553
25.4748
26.5355
27.639
28.7869
29.981
31.2233
32.5158
33.8606
35.2599
36.7161
38.2318
39.8098
41.4529
43.1642
44.947
46.8048
48.7414
50.7608
52.8671
55.0652
57.3596
59.7557
62.2591
64.8758
67.6121
70.475
73.4718
76.6105
79.9
83.3491
86.9683
90.7682
94.7608
98.9588
103.377
108.03
112.935
118.11
123.577
129.356
135.475
141.96
148.841
156.155
163.937
172.232
181.084
190.546
200.674
211.525
223.158
235.628
248.962
263.169
278.103
293.556
308.551
322.328
329.965
7.8808
8.26743
7.96939
8.20959
8.62844
8.96835
9.2946
9.6581
10.0466
10.4502
10.8717
11.3138
11.7767
12.2606
12.7664
13.2947
13.8465
14.4226
15.0237
15.6508
16.3047
16.9865
17.6972
18.4378
19.2094
20.0131
20.8501
21.7217
22.6293
23.574
24.5575
25.5812
26.6469
27.756
28.9105
30.1122
31.3631
32.6654
34.0213
35.4332
36.9037
38.4355
40.0314
41.6945
43.4282
45.2358
47.1211
49.0881
51.1411
53.2844
55.523
57.862
60.3069
62.8637
65.5387
68.3388
71.2712
74.344
77.5656
80.9451
84.4927
88.2191
92.136
96.2562
100.594
105.164
109.984
115.072
120.447
126.134
132.157
138.543
145.323
152.532
160.208
168.394
177.136
186.486
196.502
207.244
218.77
231.14
244.384
258.517
273.385
288.793
303.739
317.573
324.101
7.69317
8.08516
7.82188
8.01827
8.39694
8.71495
9.01848
9.35661
9.72106
10.1017
10.5002
10.9191
11.3585
11.8187
12.3002
12.8039
13.3303
13.8803
14.4546
15.0542
15.6797
16.3324
17.013
17.7227
18.4623
19.2333
20.0366
20.8734
21.7453
22.6534
23.5993
24.5844
25.6104
26.6788
27.7917
28.9507
30.1579
31.4154
32.7255
34.0905
35.513
36.9957
38.5414
40.1532
41.8343
43.5881
45.4184
47.3291
49.3243
51.4084
53.5864
55.8632
58.2444
60.7356
63.3434
66.0743
68.9356
71.9351
75.0811
78.3829
81.8503
85.4937
89.3248
93.3564
97.6023
102.077
106.798
111.784
117.053
122.629
128.536
134.802
141.457
148.535
156.075
164.118
172.711
181.907
191.761
202.335
213.687
225.878
238.936
252.879
267.533
282.778
297.421
311.223
316.099
7.48695
7.87312
7.64709
7.80694
8.14624
8.44179
8.72333
9.03655
9.37676
9.73415
10.1093
10.5044
10.9199
11.3557
11.8123
12.2905
12.7908
13.314
13.8607
14.4318
15.0282
15.6507
16.3002
16.9778
17.6845
18.4215
19.1898
19.9908
20.8257
21.6957
22.6026
23.5475
24.5322
25.5584
26.6278
27.7423
28.9038
30.1145
31.3767
32.6926
34.0648
35.4959
36.9888
38.5465
40.1722
41.8693
43.6415
45.4925
47.4266
49.448
51.5616
53.7723
56.0856
58.5071
61.043
63.7001
66.4852
69.4063
72.4714
75.6896
79.0704
82.6246
86.3633
90.2988
94.4451
98.817
103.43
108.304
113.456
118.91
124.69
130.822
137.337
144.268
151.652
159.531
167.952
176.964
186.624
196.99
208.12
220.071
232.865
246.517
260.839
275.761
289.705
303.36
305.302
7.26157
7.63214
7.44403
7.57407
7.87548
8.14825
8.40853
8.69752
9.01351
9.34743
9.69895
10.07
10.461
10.8719
11.3031
11.7551
12.2286
12.7241
13.2424
13.7842
14.3504
14.9417
15.559
16.2036
16.8761
17.5779
18.31
19.0735
19.87
20.7005
21.5667
22.4697
23.4114
24.3934
25.4173
26.4852
27.5989
28.7605
29.9722
31.2364
32.5555
33.9322
35.3693
36.8697
38.4366
40.0733
41.7834
43.5708
45.4395
47.3937
49.4382
51.5778
53.8178
56.164
58.6221
61.1989
63.9012
66.7366
69.7131
72.8396
76.1255
79.5809
83.2172
87.0462
91.0812
95.3373
99.8295
104.576
109.596
114.911
120.544
126.522
132.873
139.631
146.832
154.515
162.727
171.515
180.933
191.038
201.884
213.523
225.97
239.246
253.128
267.552
280.515
293.799
292.556
7.01678
7.36346
7.21243
7.31872
7.58419
7.83407
8.0738
8.33934
8.63134
8.94173
9.26951
9.61628
9.98247
10.368
10.7731
11.1984
11.6443
12.1115
12.6005
13.1121
13.6471
14.2063
14.7905
15.4008
16.038
16.7033
17.3979
18.1229
18.8794
19.6687
20.4925
21.3521
22.249
23.1849
24.1615
25.1806
26.2442
27.3544
28.5132
29.7231
30.9864
32.3058
33.6839
35.1237
36.6284
38.2011
39.8454
41.5651
43.3641
45.2467
47.2172
49.2806
51.4421
53.7069
56.0813
58.5713
61.184
63.9264
66.8066
69.833
73.0146
76.3618
79.8853
83.5965
87.5084
91.6353
95.9923
100.597
105.466
110.623
116.088
121.888
128.05
134.606
141.589
149.04
156.999
165.513
174.633
184.409
194.89
206.122
218.112
230.881
244.089
257.839
269.504
282.29
276.636
6.75256
7.0687
6.95263
7.04041
7.27226
7.49939
7.71922
7.96215
8.23054
8.51746
8.82148
9.1438
9.48489
9.84468
10.2233
10.6213
11.039
11.4772
11.9362
12.4168
12.9197
13.4459
13.996
14.571
15.1718
15.7996
16.4554
17.1402
17.8555
18.6025
19.3825
20.1968
21.0474
21.9354
22.8628
23.8313
24.8428
25.8994
27.0032
28.1564
29.3614
30.6208
31.9373
33.3137
34.7531
36.2587
37.8339
39.4824
41.208
43.0149
44.9075
46.8905
48.9688
51.1478
53.4333
55.8314
58.3487
60.9923
63.7698
66.6894
69.7599
72.9914
76.3938
79.9784
83.758
87.7457
91.9565
96.4068
101.114
106.098
111.38
116.985
122.938
129.269
136.011
143.199
150.872
159.073
167.845
177.235
187.278
198.021
209.443
221.541
233.866
246.755
256.659
268.8
255.896
6.46884
6.74959
6.66536
6.73908
6.93989
7.14456
7.34508
7.56625
7.81146
8.07507
8.35532
8.65313
8.9689
9.30259
9.65434
10.0245
10.4135
10.822
11.2503
11.6991
12.1692
12.6614
13.1763
13.7151
14.2784
14.8675
15.4832
16.1268
16.7996
17.5026
18.2373
19.005
19.8074
20.6458
21.5222
22.438
23.3954
24.3962
25.4426
26.5367
27.6809
28.8777
30.1298
31.4399
32.8109
34.2461
35.7488
37.3225
38.971
40.6983
42.5086
44.4067
46.3973
48.4856
50.6771
52.9777
55.3939
57.9326
60.601
63.407
66.3594
69.467
72.7402
76.1897
79.8274
83.6657
87.7195
92.0038
96.5352
101.332
106.416
111.808
117.534
123.62
130.096
136.996
144.352
152.203
160.584
169.538
179.09
189.267
200.002
211.297
222.559
234.379
241.942
253.181
231.642
6.16568
6.40802
6.35177
6.41503
6.58747
6.77017
6.9519
7.15209
7.37465
7.61512
7.87169
8.1449
8.43518
8.74251
9.06696
9.40887
9.76857
10.1466
10.5435
10.9598
11.3963
11.8535
12.3324
12.8338
13.3586
13.9077
14.4822
15.0832
15.7119
16.3695
17.0573
17.7767
18.5292
19.3162
20.1394
21.0007
21.9017
22.8444
23.831
24.8634
25.9441
27.0754
28.26
29.5005
30.7998
32.161
33.5874
35.0823
36.6494
38.2927
40.0161
41.8242
43.7217
45.7135
47.8051
50.0019
52.3103
54.7367
57.2883
59.9725
62.7975
65.7722
68.906
72.2091
75.693
79.3694
83.2521
87.3552
91.6944
96.287
101.152
106.309
111.782
117.595
123.775
130.35
137.35
144.807
152.751
161.211
170.194
179.701
189.626
199.99
209.963
220.49
225.078
235.222
204.193
5.84322
6.04591
6.01331
6.06889
6.21568
6.37708
6.54049
6.72045
6.92089
7.13847
7.37144
7.62008
7.88474
8.16543
8.46222
8.77542
9.10535
9.45246
9.81728
10.2003
10.6023
11.0238
11.4657
11.9287
12.4139
12.922
13.4541
14.0112
14.5946
15.2054
15.8448
16.5143
17.2152
17.949
18.7175
19.5222
20.3648
21.2473
22.1718
23.1403
24.1549
25.2182
26.3325
27.5005
28.7251
30.0091
31.3558
32.7684
34.2504
35.8057
37.4381
39.152
40.9518
42.8424
44.8288
46.9164
49.1112
51.4194
53.8479
56.4032
59.0937
61.9276
64.9135
68.0613
71.3812
74.8849
78.5847
82.4938
86.6264
90.9986
95.627
100.53
105.729
111.244
117.097
123.314
129.92
136.939
144.39
152.287
160.611
169.357
178.365
187.671
196.127
205.206
206.173
215.232
169.619
5.50163
5.6652
5.65167
5.70155
5.8254
5.9663
6.11182
6.27222
6.45108
6.64602
6.85548
7.07955
7.31849
7.57234
7.84118
8.12528
8.42494
8.74057
9.07266
9.42177
9.78848
10.1734
10.5774
11.0012
11.4456
11.9116
12.4002
12.9123
13.4491
14.0117
14.6013
15.2193
15.8671
16.546
17.2578
18.0041
18.7864
19.6067
20.467
21.3691
22.3154
23.3081
24.3495
25.4424
26.5893
27.7931
29.0568
30.3838
31.7772
33.2408
34.7784
36.394
38.092
39.8768
41.7534
43.727
45.803
47.9875
50.2869
52.7076
55.2572
57.9433
60.774
63.759
66.9073
70.2295
73.7371
77.4419
81.3569
85.4968
89.8761
94.5104
99.4176
104.617
110.125
115.963
122.146
128.689
135.598
142.873
150.479
158.39
166.367
174.479
181.17
188.619
185.207
193.118
129.404
5.14128
5.26784
5.26877
5.3142
5.41767
5.539
5.66703
5.80841
5.96618
6.13876
6.32483
6.52431
6.7374
6.9642
7.20477
7.45935
7.72824
8.01181
8.31057
8.62502
8.95568
9.30323
9.66845
10.052
10.4546
10.8774
11.3212
11.7869
12.2757
12.7886
13.327
13.8919
14.4849
15.1073
15.7604
16.4461
17.166
17.9219
18.7155
19.5488
20.424
21.3433
22.3089
23.3234
24.3894
25.5095
26.6867
27.924
29.2248
30.5924
32.0305
33.543
35.1339
36.8075
38.5685
40.4219
42.3727
44.4266
46.5894
48.8675
51.2676
53.7971
56.4634
59.275
62.2404
65.3696
68.6723
72.1589
75.8414
79.7323
83.8445
88.1912
92.7871
97.6468
102.782
108.208
113.93
119.954
126.274
132.873
139.688
146.668
153.476
160.236
164.861
170.441
161.732
168.405
87.4198
4.76264
4.85577
4.86672
4.90831
4.99376
5.09656
5.20745
5.33031
5.46745
5.61793
5.78068
5.95558
6.14275
6.34227
6.55429
6.77899
7.01666
7.26769
7.53248
7.81162
8.10553
8.41489
8.74043
9.08279
9.44277
9.82124
10.2191
10.6373
11.0768
11.5389
12.0244
12.5348
13.0713
13.6354
14.2284
14.8518
15.5072
16.1965
16.9213
17.6836
18.4853
19.3287
20.2158
21.1492
22.1312
23.1646
24.252
25.3964
26.6009
27.8687
29.2034
30.6085
32.0879
33.6457
35.2862
37.0141
38.8343
40.7516
42.7719
44.9007
47.1443
49.5094
52.0026
54.6315
57.4041
60.3288
63.4146
66.6708
70.1073
73.7346
77.5636
81.6038
85.8667
90.3616
95.0952
100.075
105.303
110.771
116.46
122.335
128.298
134.278
139.822
145.145
147.477
151.162
136.337
142.181
35.6145
4.36654
4.4309
4.44781
4.48556
4.55511
4.64045
4.73457
4.83928
4.95618
5.08478
5.22432
5.3746
5.53571
5.70779
5.89097
6.08542
6.29144
6.50939
6.73967
6.98283
7.2393
7.50972
7.79471
8.09503
8.41132
8.74447
9.09534
9.46483
9.85388
10.2636
10.6951
11.1495
11.6281
12.1322
12.6632
13.2224
13.8115
14.4322
15.0861
15.7751
16.5011
17.2661
18.0723
18.9218
19.8172
20.7608
21.7553
22.8035
23.9083
25.0729
26.3004
27.5944
28.9584
30.3962
31.9118
33.5095
35.1939
36.9697
38.8419
40.8158
42.897
45.0914
47.4055
49.8454
52.4183
55.1314
57.9923
61.0086
64.1887
67.5407
71.072
74.7898
78.7019
82.8133
87.126
91.6394
96.345
101.225
106.24
111.339
116.383
121.287
125.453
129.231
129.006
130.705
108.859
114.031
-21.3433
3.95405
3.99517
4.01442
4.04788
4.10331
4.17227
4.24993
4.33678
4.43375
4.54068
4.65703
4.78263
4.91757
5.06197
5.21599
5.3798
5.55369
5.73806
5.93325
6.13975
6.35803
6.58869
6.83235
7.08967
7.36132
7.64809
7.95082
8.27038
8.60769
8.96376
9.33966
9.73651
10.1555
10.5979
11.065
11.5582
12.0788
12.6288
13.2095
13.8228
14.4705
15.1544
15.8767
16.6394
17.4449
18.2954
19.1936
20.1418
21.143
22.2001
23.316
24.4941
25.7376
27.05
28.4352
29.897
31.4396
33.0673
34.7845
36.5961
38.5071
40.5227
42.6482
44.8894
47.2523
49.7425
52.3664
55.1298
58.0389
61.0993
64.3164
67.6942
71.2355
74.9408
78.806
82.8217
86.9694
91.2178
95.5089
99.77
103.817
107.551
110.194
112.284
109.157
108.722
78.7716
83.4531
-77.8198
3.52668
3.55048
3.56909
3.59746
3.64019
3.6938
3.75533
3.8245
3.90179
3.98717
4.08035
4.18121
4.28981
4.40631
4.53088
4.6637
4.80507
4.95533
5.11487
5.28413
5.4636
5.65378
5.85524
6.06869
6.29477
6.53418
6.78774
7.0563
7.34068
7.64187
7.96085
8.2987
8.65661
9.03566
9.43728
9.86263
10.3131
10.7904
11.2958
11.8311
12.3981
12.9986
13.6345
14.3077
15.0204
15.775
16.5736
17.4187
18.3129
19.259
20.2597
21.318
22.4369
23.6199
24.8701
26.1913
27.5869
29.061
30.6177
32.2609
33.995
35.8245
37.7539
39.788
41.9316
44.1893
46.566
49.0656
51.6926
54.4503
57.3408
60.3647
63.5209
66.8042
70.2038
73.7024
77.2706
80.8642
84.405
87.8003
90.8145
93.3466
94.4008
94.7951
88.5689
86.2136
47.3801
52.5644
-147.692
3.08641
3.09875
3.11434
3.13659
3.1677
3.20687
3.25251
3.30413
3.36186
3.42578
3.49576
3.57176
3.65385
3.74221
3.837
3.93846
4.04687
4.16254
4.28587
4.41726
4.55719
4.70617
4.86474
5.03348
5.21303
5.40412
5.60746
5.82382
6.05408
6.29913
6.55992
6.83742
7.13276
7.44697
7.7813
8.13704
8.51554
8.9181
9.34631
9.80165
10.2858
10.8004
11.3474
11.9285
12.5459
13.2015
13.8976
14.6365
15.4205
16.2521
17.1339
18.0685
19.059
20.1081
21.219
22.3947
23.6385
24.9538
26.3442
27.8132
29.3645
31.0016
32.7283
34.5484
36.4654
38.4826
40.6033
42.8299
45.164
47.6065
50.1569
52.8116
55.565
58.406
61.3174
64.2729
67.2311
70.1341
72.8809
75.3591
77.2736
78.5286
77.8706
76.4694
66.8415
62.4777
13.8496
19.411
-214.262
2.63582
2.64191
2.65276
2.6678
2.68797
2.71343
2.74341
2.77747
2.81568
2.85813
2.90483
2.95581
3.01118
3.07111
3.1358
3.2055
3.28047
3.36107
3.44763
3.54055
3.64028
3.74729
3.86211
3.9853
4.11745
4.25922
4.41128
4.5744
4.74934
4.93693
5.13807
5.3537
5.58487
5.83269
6.09809
6.38238
6.68675
7.01264
7.36128
7.73424
8.13302
8.55922
9.01454
9.50069
10.0196
10.5731
11.1632
11.7921
12.462
13.175
13.9335
14.7401
15.5971
16.5073
17.4734
18.4979
19.5838
20.7341
21.9516
23.2392
24.5999
26.0365
27.5518
29.1485
30.8287
32.5947
34.4476
36.3879
38.4154
40.5282
42.7217
44.989
47.3197
49.6963
52.0944
54.4781
56.7935
58.9673
60.8746
62.3828
63.1277
63.0336
60.5347
57.2681
43.9054
37.613
-21.7549
-15.2003
-279.889
2.17811
2.18184
2.18683
2.19375
2.20334
2.21556
2.22999
2.24646
2.26509
2.28602
2.30932
2.33509
2.36349
2.3947
2.42897
2.46652
2.50765
2.55268
2.60195
2.65584
2.71475
2.77914
2.8495
2.92634
3.01021
3.10175
3.20159
3.31039
3.4289
3.55791
3.69823
3.85071
4.01638
4.19611
4.39106
4.60222
4.83085
5.07815
5.34538
5.63392
5.94521
6.28071
6.64199
7.03067
7.44845
7.89712
8.3785
8.89449
9.44712
10.0384
10.6704
11.3454
12.0655
12.8331
13.6504
14.5199
15.4438
16.4246
17.4646
18.5661
19.7313
20.9621
22.2605
23.628
25.0657
26.574
28.1527
29.8003
31.5141
33.2895
35.119
36.9915
38.8913
40.7959
42.6725
44.4763
46.1408
47.5788
48.6395
49.1749
48.7448
47.3186
42.9636
37.9407
20.7476
13.0415
-57.4341
-48.4162
-364.418
1.71708
1.72037
1.7188
1.71706
1.7162
1.71536
1.7142
1.71296
1.71188
1.71112
1.71081
1.71112
1.71225
1.71444
1.7179
1.72291
1.72975
1.7387
1.75012
1.76437
1.78182
1.8029
1.82804
1.85775
1.89253
1.93292
1.9795
2.03292
2.09386
2.16307
2.24124
2.32922
2.42782
2.53808
2.66083
2.79722
2.94819
3.11498
3.29867
3.50066
3.72214
3.96452
4.22924
4.51776
4.83164
5.17248
5.54195
5.94176
6.37369
6.83952
7.34111
7.8804
8.45927
9.07961
9.74343
10.4526
11.209
12.0146
12.8709
13.7798
14.7424
15.7601
16.8337
17.9634
19.1491
20.3899
21.6834
23.0263
24.4135
25.8369
27.286
28.7455
30.194
31.6026
32.931
34.1241
35.1014
35.7606
35.9225
35.4235
33.7353
30.8865
24.5185
17.6107
-3.76625
-13.1462
-95.4483
-85.1703
-426.743
1.25672
1.25935
1.251
1.24049
1.22905
1.215
1.19809
1.17893
1.15794
1.13526
1.11108
1.08565
1.05921
1.03201
1.00429
0.976335
0.948412
0.920823
0.893882
0.867927
0.843313
0.820395
0.799627
0.78139
0.766203
0.754549
0.746958
0.744005
0.746311
0.754467
0.769261
0.791399
0.821668
0.860821
0.909884
0.969648
1.04124
1.12553
1.2238
1.33699
1.46639
1.61325
1.77885
1.96452
2.17166
2.4017
2.65613
2.93642
3.24415
3.58092
3.94825
4.34778
4.78109
5.24975
5.75533
6.29928
6.88302
7.50775
8.17471
8.88469
9.63844
10.4361
11.2774
12.1617
13.0873
14.0515
15.0506
16.0787
17.1282
18.1883
19.2445
20.2772
21.2598
22.1568
22.9194
23.4824
23.7515
23.6091
22.8457
21.2867
18.3029
14.0153
5.56086
-3.17299
-28.9347
-39.6234
-133.916
-121.575
-492.034
0.800742
0.800702
0.785846
0.766789
0.744395
0.71668
0.683715
0.646406
0.605199
0.560284
0.511921
0.460421
0.406069
0.349119
0.289847
0.228516
0.165406
0.100807
0.0350099
-0.0317006
-0.0989851
-0.166472
-0.233839
-0.300663
-0.366563
-0.431082
-0.493715
-0.553985
-0.611363
-0.665208
-0.714935
-0.759905
-0.799378
-0.832529
-0.858715
-0.877008
-0.886551
-0.886343
-0.87552
-0.852965
-0.817621
-0.768396
-0.704133
-0.623623
-0.525656
-0.40896
-0.27226
-0.114223
0.0664524
0.271101
0.501053
0.757566
1.04197
1.35547
1.69916
2.0741
2.48116
2.92111
3.39442
3.90133
4.4415
5.01441
5.61878
6.25263
6.91303
7.5956
8.29473
9.00258
9.70884
10.4
11.0577
11.6577
12.1689
12.5492
12.7413
12.6705
12.2283
11.2838
9.59611
6.98694
2.71509
-2.9671
-13.4982
-23.8868
-54.0248
-65.472
-171.417
-156.11
-572.608
0.352396
0.346432
0.325874
0.298615
0.264581
0.222518
0.173101
0.117285
0.0554767
-0.0120635
-0.0849872
-0.16294
-0.245608
-0.332705
-0.423954
-0.519082
-0.617836
-0.719948
-0.825149
-0.933138
-1.04364
-1.1564
-1.27105
-1.38726
-1.50466
-1.62288
-1.74151
-1.86016
-1.97823
-2.09527
-2.21078
-2.32411
-2.43464
-2.54182
-2.64481
-2.74288
-2.8353
-2.92123
-2.99976
-3.07004
-3.13113
-3.18199
-3.22166
-3.24909
-3.26323
-3.26298
-3.24723
-3.21491
-3.16491
-3.09621
-3.00771
-2.89843
-2.76748
-2.61399
-2.43724
-2.23666
-2.01187
-1.76277
-1.48949
-1.19264
-0.873169
-0.532699
-0.173585
0.200875
0.586243
0.976715
1.36471
1.74
2.08963
2.39664
2.6392
2.78902
2.80827
2.64855
2.24375
1.50925
0.321302
-1.46477
-4.12515
-7.8384
-13.4741
-20.6211
-33.3692
-45.4987
-80.2747
-92.7525
-210.477
-193.805
-622.74
-0.0855264
-0.101396
-0.12628
-0.161382
-0.208039
-0.265318
-0.331675
-0.406407
-0.489264
-0.579895
-0.67781
-0.782609
-0.893982
-1.01163
-1.13526
-1.26462
-1.39946
-1.53952
-1.68456
-1.83436
-1.98867
-2.1472
-2.30971
-2.47594
-2.64558
-2.81829
-2.99372
-3.17149
-3.35125
-3.53256
-3.71485
-3.89775
-4.08069
-4.26305
-4.44426
-4.62365
-4.80053
-4.9743
-5.14414
-5.30916
-5.46867
-5.62181
-5.76768
-5.90544
-6.03414
-6.15294
-6.26095
-6.35726
-6.44106
-6.51144
-6.56778
-6.60928
-6.6354
-6.64572
-6.63987
-6.61783
-6.57972
-6.52607
-6.45763
-6.37566
-6.28218
-6.1797
-6.0716
-5.9626
-5.85826
-5.76637
-5.69645
-5.66099
-5.67559
-5.76022
-5.94069
-6.25017
-6.73107
-7.4395
-8.44947
-9.85589
-11.7979
-14.4317
-18.0709
-22.8847
-29.8882
-38.4595
-53.4332
-67.1354
-106.545
-119.586
-248.243
-229.88
-678.899
-0.510685
-0.540649
-0.567937
-0.610679
-0.67128
-0.744767
-0.82859
-0.922729
-1.0272
-1.14143
-1.26479
-1.39688
-1.5374
-1.68601
-1.84244
-2.00645
-2.17778
-2.35622
-2.54159
-2.73365
-2.93221
-3.13713
-3.34814
-3.56499
-3.78749
-4.01539
-4.24838
-4.48622
-4.72856
-4.97499
-5.22522
-5.47882
-5.73532
-5.99416
-6.25503
-6.51729
-6.7802
-7.04346
-7.30622
-7.56789
-7.82782
-8.08529
-8.33954
-8.58994
-8.83571
-9.07608
-9.31049
-9.53815
-9.7586
-9.97115
-10.1754
-10.371
-10.5577
-10.7353
-10.9041
-11.0644
-11.217
-11.3628
-11.5035
-11.6409
-11.7781
-11.9182
-12.066
-12.2273
-12.4095
-12.6215
-12.8753
-13.1854
-13.5697
-14.0519
-14.6613
-15.4355
-16.4232
-17.6857
-19.3061
-21.3886
-24.0876
-27.5691
-32.1863
-38.0882
-46.4523
-56.3963
-73.5784
-88.6923
-132.614
-145.93
-284.426
-264.812
-737.512
-0.921114
-0.96915
-0.996466
-1.04692
-1.12307
-1.21381
-1.31568
-1.42984
-1.55655
-1.69495
-1.84428
-2.00415
-2.17424
-2.35426
-2.54392
-2.74299
-2.95124
-3.16852
-3.39466
-3.62948
-3.87285
-4.12464
-4.38466
-4.6528
-4.92886
-5.2127
-5.50409
-5.80283
-6.1087
-6.42137
-6.7405
-7.06595
-7.39729
-7.73414
-8.07605
-8.4226
-8.7734
-9.12795
-9.48573
-9.84612
-10.2087
-10.5728
-10.938
-11.3036
-11.6692
-12.0342
-12.3981
-12.7605
-13.1211
-13.4795
-13.8356
-14.1893
-14.5408
-14.8904
-15.2386
-15.5864
-15.935
-16.2861
-16.6418
-17.005
-17.3793
-17.7693
-18.1807
-18.6206
-19.0977
-19.6232
-20.2104
-20.8765
-21.6426
-22.5349
-23.5874
-24.8414
-26.3512
-28.1855
-30.4361
-33.2164
-36.6968
-41.0521
-46.679
-53.6978
-63.4687
-74.8064
-94.2731
-110.798
-159.274
-173.071
-320.622
-301.404
-768.662
-1.31515
-1.38466
-1.40924
-1.46785
-1.56137
-1.67045
-1.791
-1.92585
-2.0755
-2.23868
-2.41449
-2.60261
-2.80275
-3.01459
-3.23788
-3.47238
-3.71795
-3.97445
-4.24172
-4.51968
-4.80828
-5.1074
-5.41696
-5.73689
-6.06711
-6.40751
-6.75795
-7.11832
-7.48845
-7.86813
-8.25731
-8.65568
-9.06293
-9.47877
-9.90309
-10.3355
-10.7755
-11.2228
-11.6771
-12.138
-12.605
-13.0778
-13.5559
-14.039
-14.5268
-15.0187
-15.5147
-16.0145
-16.518
-17.0252
-17.536
-18.0511
-18.5707
-19.0957
-19.6268
-20.1657
-20.7141
-21.2742
-21.8491
-22.4423
-23.0582
-23.7024
-24.3818
-25.1049
-25.882
-26.7256
-27.6513
-28.6787
-29.8311
-31.1385
-32.6378
-34.3755
-36.4117
-38.8209
-41.7032
-45.1806
-49.4397
-54.6602
-61.2856
-69.3922
-80.5447
-93.1877
-114.885
-132.588
-185.381
-199.26
-354.157
-335.942
-808.317
-1.69135
-1.78484
-1.80373
-1.8714
-1.98435
-2.11282
-2.25272
-2.40904
-2.58238
-2.77096
-2.9738
-3.19066
-3.4213
-3.66541
-3.92272
-4.19302
-4.47626
-4.77234
-5.0811
-5.40263
-5.73685
-6.0837
-6.44325
-6.81545
-7.20033
-7.59787
-8.00796
-8.43067
-8.86587
-9.31353
-9.77347
-10.2457
-10.73
-11.2262
-11.7341
-12.2534
-12.7842
-13.3259
-13.8785
-14.4416
-15.015
-15.5985
-16.1917
-16.7944
-17.4066
-18.028
-18.6587
-19.2985
-19.9478
-20.6067
-21.2755
-21.955
-22.6461
-23.3498
-24.0675
-24.8012
-25.5532
-26.3264
-27.1246
-27.9518
-28.8136
-29.7166
-30.6689
-31.6799
-32.7615
-33.928
-35.1973
-36.5905
-38.1344
-39.8619
-41.8131
-44.0397
-46.6062
-49.5933
-53.1098
-57.2851
-62.3219
-68.402
-76.0188
-85.1901
-97.7065
-111.585
-135.464
-154.192
-211.021
-224.936
-385.541
-369.551
-843.666
-2.04849
-2.16735
-2.17752
-2.25571
-2.39028
-2.53915
-2.69911
-2.87776
-3.07559
-3.29022
-3.52065
-3.7668
-4.0284
-4.30517
-4.59686
-4.90336
-5.22461
-5.56058
-5.91124
-6.27662
-6.65683
-7.05184
-7.46178
-7.88676
-8.32681
-8.78201
-9.25247
-9.7382
-10.2392
-10.7557
-11.2874
-11.8345
-12.3969
-12.9745
-13.5673
-14.1753
-14.7983
-15.4361
-16.0887
-16.756
-17.4378
-18.1341
-18.8447
-19.5696
-20.3089
-21.0626
-21.8308
-22.6138
-23.4121
-24.2261
-25.0565
-25.9043
-26.7709
-27.6575
-28.5662
-29.4993
-30.4598
-31.4512
-32.4779
-33.5448
-34.6585
-35.8265
-37.0578
-38.3636
-39.7572
-41.2546
-42.8753
-44.6432
-46.5876
-48.7447
-51.1581
-53.884
-56.9922
-60.5698
-64.7334
-69.6195
-75.4484
-82.4002
-91.0242
-101.266
-115.166
-130.264
-156.338
-176.06
-236.748
-250.998
-415.884
-403.931
-853.07
-2.38542
-2.52973
-2.52832
-2.61907
-2.77748
-2.94768
-3.12849
-3.33041
-3.55356
-3.79488
-4.05347
-4.32937
-4.62237
-4.9322
-5.25861
-5.6016
-5.96112
-6.3372
-6.72999
-7.13951
-7.56594
-8.00939
-8.47011
-8.94818
-9.44378
-9.95713
-10.4884
-11.0378
-11.6052
-12.1911
-12.7953
-13.4181
-14.0596
-14.7197
-15.3986
-16.0963
-16.8129
-17.5481
-18.3023
-19.0754
-19.8673
-20.6782
-21.5082
-22.3573
-23.2258
-24.1141
-25.0223
-25.951
-26.9009
-27.8728
-28.8676
-29.8867
-30.9317
-32.0044
-33.1073
-34.2432
-35.4156
-36.6288
-37.8875
-39.198
-40.5674
-42.0042
-43.5184
-45.1227
-46.8318
-48.6635
-50.6397
-52.7855
-55.1338
-57.7232
-60.6011
-63.8275
-67.4774
-71.6435
-76.4504
-82.0401
-88.6502
-96.4546
-106.063
-117.326
-132.566
-148.766
-176.933
-197.411
-261.537
-275.932
-442.814
-438.051
-869.27
-2.70104
-2.8695
-2.85398
-2.95997
-3.14448
-3.33683
-3.53933
-3.76553
-4.01481
-4.28349
-4.57079
-4.87693
-5.20173
-5.54491
-5.90632
-6.28603
-6.68406
-7.10054
-7.53559
-7.98944
-8.46232
-8.95445
-9.46614
-9.99764
-10.5492
-11.1211
-11.7135
-12.3269
-12.9614
-13.6173
-14.2948
-14.9941
-15.7155
-16.4592
-17.2252
-18.0137
-18.8249
-19.6591
-20.5162
-21.3966
-22.3003
-23.2277
-24.1789
-25.1543
-26.1542
-27.1791
-28.2296
-29.3064
-30.4105
-31.5428
-32.7047
-33.8977
-35.124
-36.3858
-37.6859
-39.0277
-40.4152
-41.8531
-43.3471
-44.9042
-46.5323
-48.2409
-50.0414
-51.9473
-53.9751
-56.1438
-58.4775
-61.0036
-63.7567
-66.7791
-70.1216
-73.848
-78.0378
-82.7883
-88.232
-94.5149
-101.892
-110.526
-121.092
-133.325
-149.856
-167.044
-197.189
-218.231
-285.332
-299.849
-466.515
-467.836
-893.003
-2.99431
-3.18414
-3.15259
-3.27713
-3.4899
-3.70516
-3.9303
-4.18186
-4.45813
-4.7548
-5.07135
-5.40821
-5.76517
-6.14203
-6.53872
-6.95534
-7.39204
-7.84908
-8.32659
-8.82496
-9.34449
-9.88549
-10.4484
-11.0335
-11.6413
-12.272
-12.9262
-13.6041
-14.3062