/*--------------------------------*- C++ -*----------------------------------*\
  =========                 |
  \\      /  F ield         | OpenFOAM: The Open Source CFD Toolbox
   \\    /   O peration     | Website:  https://openfoam.org
    \\  /    A nd           | Version:  11
     \\/     M anipulation  |
\*---------------------------------------------------------------------------*/
FoamFile
{
    format      ascii;
    class       volScalarField;
    location    "500";
    object      p;
}
// * * * * * * * * * * * * * * * * * * * * * * * * * * * * * * * * * * * * * //

dimensions      [0 2 -2 0 0 0 0];

internalField   nonuniform List<scalar> 
31595
(
12.5208
8.47626
9.33756
9.73566
10.3336
10.637
11.2189
11.7066
12.2672
12.8241
13.4209
14.0325
14.6736
15.3381
16.0307
16.7506
17.4997
18.2787
19.0889
19.9313
20.8071
21.7173
22.663
23.6453
24.6653
25.7241
26.8228
27.9625
29.1444
30.3697
31.6393
32.9548
34.3174
35.7284
37.1892
38.7015
40.2669
41.8873
43.5644
45.3005
47.0977
48.9586
50.8859
52.8823
54.9511
57.0955
59.3192
61.626
64.0202
66.5062
69.0887
71.773
74.5643
77.4687
80.4923
83.6418
86.9242
90.3472
93.919
97.6482
101.544
105.617
109.877
114.337
119.008
123.904
129.04
134.43
140.093
146.046
152.309
158.903
165.851
173.179
180.911
189.076
197.703
206.822
216.461
226.647
237.399
248.726
260.614
273.009
285.799
298.701
311.426
322.63
332.672
10.4084
9.08859
8.81851
9.62438
10.1454
10.5452
11.0569
11.5787
12.1148
12.6706
13.2516
13.8542
14.4812
15.1332
15.8116
16.5171
17.251
18.0143
18.8082
19.6338
20.4921
21.3842
22.3113
23.2743
24.2745
25.3129
26.3908
27.5092
28.6692
29.8723
31.1196
32.4124
33.7519
35.1398
36.5775
38.0667
39.6092
41.2067
42.8612
44.5749
46.3502
48.1896
50.0959
52.0719
54.1208
56.246
58.4512
60.7403
63.1175
65.5874
68.1547
70.8246
73.6027
76.4948
79.5073
82.6469
85.9207
89.3366
92.9028
96.6281
100.522
104.595
108.858
113.323
118.002
122.91
128.061
133.472
139.16
145.143
151.444
158.083
165.086
172.478
180.287
188.543
197.277
206.522
216.31
226.67
237.626
249.19
261.351
274.056
287.187
300.454
313.503
324.976
334.842
9.3894
9.03995
8.63861
9.41767
9.98731
10.4105
10.9003
11.4223
11.9492
12.4949
13.0632
13.6536
14.2668
14.9046
15.5679
16.2579
16.9756
17.7223
18.4988
19.3064
20.1461
21.019
21.9263
22.8689
23.8481
24.865
25.9208
27.0166
28.1536
29.3331
30.5564
31.8248
33.1399
34.503
35.9158
37.38
38.8973
40.4697
42.0992
43.7882
45.5389
47.3539
49.2361
51.1883
53.2139
55.3162
57.499
59.7662
62.122
64.571
67.118
69.7683
72.5275
75.4015
78.3966
81.5196
84.7781
88.1796
91.7325
95.446
99.3296
103.394
107.65
112.11
116.788
121.696
126.851
132.27
137.97
143.971
150.295
156.965
164.006
171.447
179.315
187.644
196.468
205.821
215.738
226.253
237.395
249.18
261.6
274.607
288.076
301.718
315.106
326.9
336.581
8.97435
8.90313
8.52689
9.22886
9.82709
10.2577
10.7336
11.246
11.7641
12.2974
12.8522
13.4285
14.027
14.6492
15.2965
15.9698
16.6703
17.399
18.1571
18.9456
19.7656
20.6182
21.5045
22.4256
23.3826
24.3768
25.4092
26.4811
27.5938
28.7484
29.9464
31.1892
32.4782
33.8149
35.2011
36.6385
38.1289
39.6743
41.2767
42.9386
44.6624
46.4505
48.306
50.2317
52.2309
54.3071
56.4641
58.7058
61.0364
63.4606
65.9833
68.6097
71.3454
74.1964
77.1691
80.2703
83.5076
86.8887
90.4222
94.1171
97.9835
102.032
106.273
110.72
115.386
120.286
125.436
130.851
136.552
142.559
148.893
155.58
162.645
170.117
178.028
186.412
195.305
204.745
214.77
225.418
236.722
248.704
261.361
274.652
288.447
302.465
316.201
328.352
337.856
8.72684
8.79935
8.43534
9.06558
9.66605
10.0971
10.5568
11.0553
11.5617
12.0809
12.6206
13.1815
13.764
14.3695
14.9995
15.6551
16.3372
17.047
17.7855
18.5538
19.353
20.1842
21.0484
21.9469
22.8807
23.8509
24.8588
25.9057
26.9926
28.1211
29.2924
30.508
31.7695
33.0784
34.4363
35.845
37.3067
38.8231
40.3964
42.029
43.7235
45.4823
47.3083
49.2047
51.1747
53.2217
55.3496
57.5624
59.8642
62.2599
64.7542
67.3523
70.0601
72.8835
75.829
78.9034
82.1142
85.4694
88.9776
92.648
96.4906
100.516
104.736
109.163
113.81
118.693
123.828
129.233
134.925
140.927
147.261
153.953
161.031
168.523
176.464
184.89
193.838
203.35
213.467
224.232
235.683
247.846
260.726
274.287
288.396
302.786
316.874
329.419
338.643
8.56362
8.7276
8.35974
8.91777
9.50456
9.92902
10.3695
10.8506
11.3422
11.8456
12.3687
12.9126
13.4778
14.0656
14.6772
15.3138
15.9765
16.6662
17.3841
18.1312
18.9085
19.7172
20.5582
21.4329
22.3421
23.2872
24.2694
25.2898
26.3498
27.4507
28.5939
29.781
31.0133
32.2926
33.6205
34.999
36.4298
37.9152
39.4572
41.0583
42.721
44.4478
46.2418
48.106
50.0437
52.0583
54.1537
56.3339
58.6033
60.9663
63.428
65.9938
68.669
71.4599
74.373
77.4153
80.594
83.9174
87.3941
91.0334
94.8452
98.8406
103.031
107.43
112.05
116.908
122.018
127.4
133.073
139.059
145.381
152.065
159.141
166.638
174.593
183.042
192.026
201.589
211.778
222.637
234.209
246.529
259.605
273.412
287.815
302.558
317.005
329.986
338.768
8.42541
8.66099
8.29108
8.77681
9.33968
9.75243
10.1714
10.6319
11.1062
11.5921
12.0969
12.6225
13.1691
13.7378
14.33
14.9466
15.5887
16.2574
16.9535
17.6782
18.4326
19.2176
20.0344
20.884
21.7675
22.6863
23.6413
24.634
25.6656
26.7375
27.8511
29.0079
30.2094
31.4574
32.7535
34.0996
35.4976
36.9497
38.4581
40.0251
41.6534
43.3455
45.1045
46.9333
48.8353
50.814
52.8732
55.0169
57.2495
59.5755
62
64.5283
67.1658
69.9188
72.7937
75.7976
78.9378
82.2224
85.6602
89.2606
93.0335
96.99
101.142
105.502
110.085
114.905
119.979
125.326
130.965
136.919
143.212
149.871
156.925
164.406
172.35
180.798
189.791
199.376
209.602
220.519
232.174
244.609
257.838
271.845
286.5
301.559
316.34
329.636
338.282
8.29255
8.58502
8.22052
8.63596
9.16777
9.56515
9.96115
10.3988
10.8536
11.3203
11.8055
12.3114
12.8383
13.3869
13.9584
14.554
15.1746
15.821
16.4944
17.1957
17.926
18.6862
19.4775
20.3008
21.1575
22.0486
22.9753
23.9389
24.9407
25.9822
27.0645
28.1895
29.3585
30.5733
31.8356
33.1473
34.5105
35.9271
37.3994
38.9299
40.5211
42.1757
43.8966
45.6869
47.5499
49.4892
51.5084
53.6117
55.8035
58.0881
60.4707
62.9564
65.551
68.2605
71.0914
74.0507
77.1457
80.3848
83.7763
87.3299
91.0555
94.9642
99.068
103.38
107.913
112.684
117.71
123.008
128.599
134.506
140.753
147.367
154.378
161.821
169.731
178.15
187.122
196.695
206.923
217.858
229.552
242.053
255.381
269.532
284.375
299.686
314.73
328.15
337.054
8.15271
8.48869
8.13908
8.48923
8.98527
9.36477
9.73714
10.1504
10.5839
11.0302
11.4946
11.9797
12.4857
13.0132
13.5632
14.1368
14.7347
15.3581
16.0077
16.6846
17.3897
18.1241
18.8888
19.6848
20.5134
21.3756
22.2727
23.206
24.1766
25.1861
26.2359
27.3275
28.4623
29.6423
30.8691
32.1446
33.4708
34.8498
36.284
37.7756
39.3273
40.9418
42.6219
44.3709
46.1919
48.0885
50.0645
52.1238
54.2709
56.5103
58.8469
61.286
63.8331
66.4945
69.2763
72.1858
75.2302
78.4177
81.757
85.2574
88.929
92.7828
96.8307
101.086
105.562
110.275
115.242
120.481
126.013
131.86
138.048
144.603
151.557
158.944
166.802
175.171
184.1
193.637
203.837
214.758
226.455
238.981
252.361
266.599
281.561
297.038
312.188
325.812
334.528
8.0003
8.36664
8.04032
8.33176
8.7892
9.14902
9.49773
9.88579
10.2967
10.7215
11.1642
11.6276
12.1118
12.6172
13.1447
13.6953
14.2698
14.869
15.4939
16.1453
16.8242
17.5317
18.2688
19.0363
19.8356
20.6678
21.534
22.4355
23.3736
24.3498
25.3654
26.422
27.521
28.6644
29.8537
31.0911
32.3784
33.7177
35.1114
36.5617
38.0714
39.643
41.2796
42.9841
44.76
46.6106
48.5398
50.5516
52.6501
54.8402
57.1265
59.5142
62.0091
64.6172
67.3447
70.1987
73.1866
76.3163
79.5967
83.0367
86.6469
90.4378
94.4215
98.6109
103.02
107.665
112.562
117.73
123.19
128.964
135.077
141.557
148.436
155.748
163.531
171.827
180.685
190.156
200.296
211.166
222.823
235.324
248.701
262.963
277.971
293.52
308.646
322.545
330.491
7.83186
8.21581
7.9194
8.15956
8.57713
8.916
9.24143
9.604
9.99145
10.3939
10.8142
11.2551
11.7166
12.1991
12.7033
13.23
13.7801
14.3543
14.9534
15.5784
16.2302
16.9097
17.6179
18.3559
19.1247
19.9255
20.7595
21.6279
22.5321
23.4733
24.453
25.4729
26.5345
27.6394
28.7894
29.9864
31.2325
32.5297
33.8804
35.2869
36.7517
38.2776
39.8675
41.5244
43.2516
45.0526
46.9311
48.8911
50.9369
53.0728
55.304
57.6353
60.0725
62.6214
65.2884
68.0805
71.0048
74.0695
77.2829
80.6544
84.1939
87.9123
91.8215
95.9342
100.264
104.828
109.641
114.723
120.093
125.776
131.795
138.179
144.958
152.168
159.846
168.037
176.787
186.15
196.182
206.946
218.501
230.91
244.203
258.4
273.353
288.871
303.964
317.949
324.828
7.6457
8.03522
7.77323
7.96964
8.34722
8.66426
8.96702
9.30428
9.66776
10.0474
10.4448
10.8624
11.3006
11.7594
12.2395
12.7416
13.2664
13.8147
14.3872
14.9848
15.6083
16.2588
16.9371
17.6443
18.3814
19.1497
19.9501
20.784
21.6528
22.5576
23.5
24.4815
25.5037
26.5682
27.6769
28.8316
30.0344
31.2872
32.5925
33.9525
35.3698
36.8471
38.3872
39.9933
41.6685
43.4162
45.2403
47.1445
49.1332
51.2107
53.3818
55.6517
58.0259
60.5101
63.1107
65.8344
68.6884
71.6807
74.8196
78.1143
81.5747
85.2112
89.0357
93.0609
97.3008
101.77
106.486
111.467
116.733
122.306
128.211
134.477
141.133
148.214
155.759
163.81
172.414
181.626
191.5
202.101
213.488
225.724
238.839
252.856
267.608
282.97
297.796
311.758
317.061
7.44097
7.82492
7.59987
7.75977
8.09815
8.39282
8.67364
8.98607
9.32538
9.6818
10.0559
10.4499
10.8642
11.2988
11.7541
12.2308
12.7297
13.2512
13.7962
14.3656
14.96
15.5805
16.2279
16.9033
17.6076
18.3421
19.1078
19.906
20.738
21.605
22.5087
23.4503
24.4315
25.4541
26.5197
27.6302
28.7877
29.9941
31.2518
32.5632
33.9306
35.3568
36.8446
38.3971
40.0175
41.7091
43.4755
45.3208
47.249
49.2644
51.3718
53.5764
55.8834
58.2986
60.8282
63.4789
66.2577
69.1725
72.2314
75.4434
78.8183
82.3668
86.1
90.0304
94.1719
98.5395
103.149
108.019
113.17
118.623
124.403
130.536
137.054
143.991
151.383
159.273
167.708
176.74
186.425
196.823
207.993
219.996
232.856
246.593
261.024
276.081
290.238
304.062
306.552
7.2171
7.58572
7.39833
7.52844
7.82908
8.10106
8.36067
8.64895
8.96412
9.29715
9.64772
10.0178
10.4077
10.8175
11.2474
11.6981
12.1702
12.6643
13.181
13.7212
14.2855
14.875
15.4904
16.1329
16.8033
17.5027
18.2324
18.9935
19.7873
20.615
21.4783
22.3783
23.3168
24.2955
25.316
26.3803
27.4903
28.648
29.8557
31.1158
32.4306
33.8029
35.2353
36.731
38.2931
39.9249
41.63
43.4122
45.2756
47.2246
49.2636
51.3978
53.6323
55.9729
58.4256
60.9969
63.6937
66.5238
69.4951
72.6165
75.8975
79.3483
82.9803
86.8054
90.837
95.0901
99.5801
104.325
109.345
114.66
120.295
126.277
132.634
139.399
146.611
154.308
162.538
171.349
180.796
190.938
201.83
213.529
226.051
239.42
253.427
268.009
281.218
294.687
294.086
6.97386
7.31888
7.16834
7.2747
7.53954
7.78872
8.02784
8.29274
8.58401
8.89359
9.22052
9.56637
9.93157
10.3161
10.7201
11.1442
11.5888
12.0546
12.5422
13.0523
13.5857
14.1432
14.7257
15.3341
15.9694
16.6327
17.3251
18.0477
18.8018
19.5887
20.4099
21.2667
22.1608
23.0937
24.0672
25.0831
26.1434
27.25
28.4053
29.6115
30.871
32.1864
33.5604
34.9961
36.4965
38.0649
39.7048
41.4199
43.2144
45.0923
47.0581
49.1168
51.2735
53.5337
55.9034
58.3888
60.997
63.735
66.611
69.6333
72.8111
76.1549
79.6753
83.3839
87.2937
91.419
95.7753
100.38
105.251
110.41
115.879
121.685
127.854
134.42
141.417
148.885
156.865
165.407
174.559
184.377
194.911
206.21
218.283
231.156
244.511
258.43
270.382
283.371
278.472
6.71123
7.026
6.91023
6.99807
7.22942
7.45594
7.67522
7.91759
8.18532
8.47152
8.77477
9.09628
9.43648
9.79533
10.173
10.5699
10.9865
11.4234
11.8812
12.3604
12.8619
13.3866
13.9351
14.5084
15.1075
15.7334
16.3873
17.0701
17.7833
18.528
19.3057
20.1176
20.9656
21.8511
22.7757
23.7414
24.7499
25.8034
26.904
28.054
29.2557
30.5116
31.8246
33.1974
34.6331
36.1349
37.7063
39.3509
41.0726
42.8756
44.7642
46.7432
48.8176
50.9927
53.2744
55.6687
58.1825
60.8226
63.5969
66.5136
69.5814
72.8106
76.2111
79.7944
83.5733
87.5609
91.7724
96.2246
100.935
105.923
111.211
116.823
122.787
129.131
135.889
143.097
150.795
159.027
167.837
177.275
187.376
198.192
209.707
221.924
234.41
247.484
257.716
270.077
258.105
6.42915
6.70883
6.62474
6.6985
6.8989
7.10307
7.30311
7.52377
7.76842
8.0314
8.31097
8.60805
8.92305
9.25591
9.60678
9.97602
10.364
10.7714
11.1986
11.6462
12.1151
12.6059
13.1195
13.6568
14.2186
14.806
15.4201
16.0619
16.7327
17.4338
18.1665
18.9321
19.7322
20.5684
21.4424
22.3558
23.3106
24.3088
25.3524
26.4437
27.5851
28.7789
30.028
31.335
32.7029
34.1349
35.6344
37.2049
38.8501
40.5742
42.3813
44.2762
46.2636
48.3489
50.5374
52.8353
55.2488
57.785
60.4513
63.2554
66.2062
69.3127
72.5852
76.0347
79.673
83.5128
87.5689
91.8565
96.3927
101.196
106.288
111.69
117.428
123.53
130.025
136.947
144.332
152.218
160.643
169.649
179.266
189.525
200.365
211.79
223.23
235.252
243.192
254.665
234.234
6.12768
6.36922
6.313
6.37627
6.5484
6.73068
6.912
7.11176
7.33383
7.57375
7.82974
8.10233
8.39194
8.69855
9.02224
9.36333
9.72217
10.0993
10.4952
10.9105
11.3459
11.802
12.2797
12.7798
13.3033
13.851
14.424
15.0235
15.6507
16.3065
16.9926
17.7102
18.4608
19.2459
20.067
20.9263
21.8251
22.7657
23.7499
24.78
25.8583
26.9872
28.1693
29.4073
30.704
32.0627
33.4865
34.9788
36.5433
38.1841
39.905
41.7108
43.6059
45.5955
47.685
49.8799
52.1866
54.6116
57.162
59.8454
62.67
65.6448
68.7792
72.0836
75.5695
79.2488
83.1354
87.2435
91.5892
96.1898
101.064
106.234
111.722
117.553
123.755
130.356
137.389
144.884
152.875
161.394
170.449
180.048
190.087
200.592
210.765
221.511
226.532
236.923
207.161
5.80696
6.00911
5.97645
6.03201
6.17858
6.33965
6.50271
6.68231
6.88234
7.09947
7.33194
7.58005
7.84416
8.12424
8.42039
8.7329
9.06211
9.40845
9.77246
10.1546
10.5557
10.9763
11.4171
11.8791
12.3632
12.8701
13.401
13.9569
14.539
15.1484
15.7864
16.4544
17.1537
17.886
18.6528
19.4557
20.2966
21.1774
22.1
23.0666
24.0794
25.1407
26.253
27.4191
28.6417
29.9238
31.2685
32.6792
34.1594
35.7128
37.3435
39.0558
40.8541
42.7433
44.7285
46.8152
49.0092
51.317
53.7454
56.301
58.9923
61.8274
64.8153
67.9656
71.289
74.797
78.5024
82.4181
86.559
90.9412
95.5816
100.499
105.715
111.251
117.129
123.376
130.017
137.079
144.583
152.544
160.947
169.791
178.923
188.383
197.059
206.373
207.831
217.145
173.04
5.46717
5.63042
5.61679
5.66663
5.79032
5.93096
6.07621
6.2363
6.41484
6.60942
6.81848
7.04212
7.28061
7.53397
7.80229
8.08584
8.38491
8.69993
9.03136
9.37979
9.74577
10.1299
10.5332
10.9561
11.3996
11.8647
12.3523
12.8634
13.3991
13.9607
14.5492
15.166
15.8126
16.4903
17.2008
17.9458
18.7268
19.5457
20.4046
21.3053
22.2502
23.2415
24.2815
25.373
26.5185
27.721
28.9834
30.3091
31.7014
33.1639
34.7005
36.3153
38.0125
39.7968
41.6732
43.6467
45.723
47.9081
50.2084
52.6306
55.1821
57.8707
60.7046
63.6935
66.8467
70.1748
73.6895
77.4028
81.3278
85.4796
89.873
94.5242
99.4511
104.674
110.21
116.08
122.303
128.893
135.86
143.205
150.897
158.913
167.025
175.302
182.235
189.934
187.077
195.244
133.308
5.10868
5.23511
5.2359
5.28129
5.38465
5.5058
5.63361
5.77477
5.93229
6.10459
6.29035
6.48951
6.70226
6.92868
7.16886
7.42302
7.69147
7.97457
8.27283
8.58677
8.91689
9.26387
9.62849
10.0114
10.4134
10.8355
11.2785
11.7435
12.2316
12.7437
13.2813
13.8453
14.4375
15.059
15.7112
16.396
17.115
17.8699
18.6626
19.495
20.3693
21.2877
22.2524
23.2661
24.3313
25.4507
26.6272
27.864
29.1643
30.5316
31.9694
33.4819
35.0729
36.7469
38.5086
40.3628
42.3149
44.3704
46.5353
48.8159
51.2191
53.7524
56.4232
59.24
62.2117
65.3483
68.6597
72.1566
75.851
79.7556
83.884
88.2498
92.8678
97.7534
102.92
108.382
114.148
120.224
126.605
133.28
140.187
147.281
154.237
161.174
166.063
171.907
163.823
170.751
91.7495
4.73197
4.82509
4.83591
4.87744
4.96283
5.06551
5.17626
5.29896
5.43593
5.58621
5.74876
5.92344
6.11036
6.30964
6.52139
6.7458
6.98318
7.23389
7.49836
7.77715
8.07069
8.37968
8.70483
9.04678
9.40634
9.78437
10.1818
10.5995
11.0385
11.5001
11.9852
12.495
13.031
13.5946
14.1871
14.81
15.4649
16.1536
16.878
17.6398
18.4412
19.2842
20.171
21.1041
22.086
23.1192
24.2066
25.3511
26.5559
27.8241
29.1593
30.5652
32.0456
33.6047
35.2468
36.9765
38.7989
40.7189
42.7423
44.8748
47.1227
49.4928
51.9919
54.6275
57.4078
60.3414
63.4376
66.7056
70.1557
73.7988
77.6461
81.7076
85.9951
90.5189
95.2865
100.306
105.581
111.105
116.86
122.816
128.879
134.981
140.683
146.194
148.813
152.772
138.647
144.735
40.4568
4.33784
4.40229
4.41908
4.45678
4.5263
4.61159
4.70562
4.81024
4.92705
5.05555
5.19497
5.34513
5.50611
5.67806
5.8611
6.0554
6.26127
6.47906
6.70918
6.95217
7.20846
7.4787
7.76351
8.06363
8.37974
8.71269
9.06336
9.43265
9.82151
10.2311
10.6624
11.1166
11.595
12.0989
12.6298
13.1889
13.778
14.3986
15.0525
15.7416
16.4676
17.2328
18.0392
18.8891
19.7849
20.729
21.7242
22.7732
23.879
25.0447
26.2735
27.5691
28.9349
30.3748
31.8929
33.4935
35.1811
36.9607
38.8371
40.8158
42.9025
45.1032
47.4245
49.8724
52.4546
55.1782
58.0511
61.081
64.2766
67.6465
71.1983
74.9398
78.879
83.0219
87.3714
91.9277
96.6839
101.624
106.711
111.896
117.046
122.08
126.414
130.39
130.478
132.459
111.389
116.788
-15.99
3.92737
3.96862
3.98779
4.02121
4.07665
4.1456
4.22324
4.31007
4.40703
4.51393
4.63026
4.75585
4.89077
5.03516
5.18917
5.35297
5.52685
5.71122
5.90641
6.11291
6.33121
6.56188
6.80557
7.06292
7.33461
7.62143
7.92422
8.24385
8.58126
8.93744
9.31347
9.71048
10.1296
10.5722
11.0396
11.5331
12.0541
12.6045
13.1857
13.7995
14.4477
15.1323
15.8554
16.619
17.4256
18.2773
19.1767
20.1265
21.1294
22.1884
23.3064
24.4869
25.733
27.0486
28.4371
29.9027
31.4496
33.0821
34.8046
36.6222
38.54
40.5631
42.6971
44.9478
47.3214
49.8237
52.4613
55.2401
58.1667
61.247
64.4867
67.8905
71.4615
75.201
79.106
83.168
87.37
91.6827
96.0505
100.404
104.564
108.435
111.258
113.556
110.767
110.621
81.5274
86.4147
-72.0468
3.50205
3.52599
3.54455
3.5729
3.61568
3.66933
3.7309
3.80012
3.87746
3.96291
4.05616
4.15711
4.26581
4.38242
4.5071
4.64005
4.78156
4.93198
5.09169
5.26113
5.4408
5.63119
5.83289
6.04659
6.27295
6.51265
6.76653
7.03545
7.32021
7.62181
7.94125
8.27959
8.63803
9.01768
9.41994
9.84599
10.2972
10.7753
11.2817
11.8181
12.3862
12.9879
13.6251
14.2998
15.0142
15.7705
16.5711
17.4184
18.3151
19.2638
20.2674
21.3289
22.4514
23.6383
24.8929
26.2188
27.6198
29.0997
30.6629
32.3133
34.0553
35.8937
37.8331
39.878
42.0338
44.3052
46.6972
49.214
51.8603
54.6398
57.5551
60.6071
63.7955
67.1157
70.5581
74.1062
77.7322
81.3941
85.0162
88.5087
91.6424
94.3185
95.5633
96.1743
90.3109
88.2455
50.35
55.7051
-141.392
3.06385
3.07629
3.09189
3.11416
3.14535
3.1846
3.23035
3.28208
3.33994
3.40401
3.47416
3.55035
3.63265
3.72123
3.81627
3.91799
4.0267
4.14268
4.26635
4.3981
4.53842
4.68781
4.84682
5.01604
5.1961
5.38774
5.59166
5.80864
6.03958
6.28535
6.54691
6.82524
7.12146
7.43663
7.772
8.12886
8.50855
8.9124
9.34201
9.79887
10.2846
10.801
11.3499
11.9331
12.5528
13.2108
13.9096
14.6514
15.4385
16.2735
17.1591
18.0978
19.0926
20.1466
21.2628
22.4443
23.6945
25.0167
26.4147
27.8921
29.4526
31.0999
32.8378
34.6703
36.601
38.6336
40.7713
43.0168
45.3721
47.8385
50.4159
53.101
55.8891
58.7698
61.7269
64.7351
67.7549
70.7301
73.5629
76.1436
78.184
79.5898
79.1335
77.9566
68.7176
64.643
17.0346
22.7341
-207.552
2.61534
2.62147
2.63237
2.64748
2.66776
2.69334
2.72348
2.75773
2.79614
2.83883
2.8858
2.93707
2.99275
3.05303
3.1181
3.18821
3.26362
3.34469
3.43175
3.52521
3.62552
3.73315
3.84862
3.97251
4.10541
4.24797
4.40087
4.56489
4.7408
4.92942
5.13164
5.34845
5.58086
5.83001
6.09683
6.38265
6.68865
7.01629
7.36679
7.74176
8.14269
8.5712
9.02901
9.51783
10.0396
10.5962
11.1897
11.8222
12.4959
13.2131
13.9762
14.7877
15.6501
16.566
17.5383
18.5697
19.663
20.8213
22.0476
23.3447
24.7159
26.164
27.692
29.3024
30.998
32.7808
34.6524
36.6135
38.6642
40.8029
43.0256
45.3257
47.6936
50.1127
52.5593
54.9991
57.3796
59.6298
61.6275
63.2433
64.1206
64.1839
61.8977
58.8618
45.9148
39.9071
-18.3597
-11.7044
-272.851
2.15969
2.1634
2.16847
2.17551
2.18524
2.19764
2.21228
2.22901
2.24793
2.26918
2.29284
2.31901
2.34783
2.37951
2.41428
2.45238
2.4941
2.53976
2.5897
2.64431
2.70398
2.7692
2.84042
2.91819
3.00304
3.09562
3.19657
3.30655
3.42631
3.55665
3.69839
3.85238
4.01964
4.20107
4.39784
4.61094
4.84162
5.09112
5.3607
5.65174
5.9657
6.30405
6.66839
7.06034
7.48162
7.93404
8.41944
8.93975
9.497
10.0933
10.7306
11.4114
12.1377
12.9119
13.7365
14.6138
15.5462
16.5361
17.586
18.6983
19.8752
21.1188
22.4312
23.8141
25.2685
26.7954
28.3944
30.0646
31.8034
33.6068
35.4675
37.3751
39.3146
41.2642
43.1922
45.0552
46.7883
48.3062
49.4617
50.1093
49.8174
48.554
44.4216
39.6331
22.8808
15.4477
-53.8526
-44.7832
-356.903
1.70066
1.70388
1.70245
1.70088
1.70018
1.69957
1.69868
1.69776
1.69705
1.6967
1.69684
1.69765
1.69933
1.70211
1.70621
1.7119
1.71947
1.72922
1.74148
1.75662
1.77503
1.79712
1.82334
1.8542
1.8902
1.93188
1.97983
2.03471
2.09719
2.16803
2.24795
2.33777
2.43833
2.55066
2.67562
2.81436
2.96782
3.13727
3.32378
3.52876
3.75344
3.99923
4.26757
4.55996
4.87797
5.22322
5.59739
6.00224
6.43955
6.91114
7.41891
7.96482
8.5508
9.17876
9.85079
10.5688
11.3348
12.1506
13.018
13.9389
14.9146
15.9465
17.0354
18.182
19.3861
20.6469
21.9626
23.3299
24.7441
26.1976
27.6801
29.1771
30.6678
32.1241
33.5068
34.7622
35.8117
36.5547
36.8157
36.4337
34.8897
32.2093
26.0745
19.4047
-1.50545
-10.6225
-91.6782
-81.3818
-419.046
1.24224
1.24477
1.2366
1.22631
1.21508
1.20129
1.18472
1.16596
1.1454
1.12322
1.0996
1.07476
1.04898
1.02249
0.995548
0.968416
0.941378
0.914735
0.888802
0.863922
0.840452
0.81875
0.799272
0.782406
0.768672
0.758558
0.752599
0.751378
0.755516
0.765617
0.78247
0.80679
0.839373
0.880978
0.932641
0.995163
1.06968
1.15707
1.25864
1.37533
1.50846
1.65927
1.82906
2.01921
2.2311
2.46621
2.72604
3.01209
3.32595
3.66928
4.0436
4.45062
4.89194
5.36918
5.88395
6.43777
7.03212
7.66825
8.34751
9.07075
9.83884
10.652
11.5102
12.4128
13.3583
14.3444
15.3673
16.4217
17.5002
18.5923
19.6841
20.7566
21.7839
22.7313
23.5511
24.1796
24.5241
24.4693
23.8092
22.3716
19.5377
15.4232
7.2121
-1.28252
-26.5525
-36.9929
-129.98
-117.651
-484.18
0.788133
0.787994
0.773352
0.754546
0.732406
0.70501
0.672444
0.6356
0.594916
0.550585
0.502868
0.452076
0.398494
0.342379
0.284005
0.223639
0.161562
0.0980678
0.0334469
-0.0320108
-0.0979636
-0.164036
-0.229902
-0.295135
-0.359347
-0.422079
-0.482817
-0.541083
-0.596338
-0.647935
-0.695282
-0.737732
-0.774537
-0.804863
-0.828057
-0.843181
-0.849366
-0.8456
-0.831004
-0.80445
-0.764863
-0.711137
-0.642097
-0.556515
-0.453158
-0.330736
-0.187946
-0.0234316
0.16414
0.376133
0.613913
0.878778
1.17209
1.49512
1.849
2.23485
2.6536
3.1061
3.59289
4.11431
4.67012
5.25992
5.88257
6.53623
7.21816
7.92419
8.64895
9.38488
10.122
10.8473
11.5428
12.1848
12.7431
13.1764
13.4285
13.4259
13.0624
12.2088
10.6283
8.14432
4.02749
-1.47815
-11.7568
-21.9077
-51.5317
-62.7503
-167.345
-152.08
-564.496
0.341569
0.335529
0.315221
0.288247
0.254512
0.212824
0.163871
0.108592
0.0473878
-0.0194794
-0.0916599
-0.168799
-0.250583
-0.336724
-0.426944
-0.520968
-0.618541
-0.719393
-0.82325
-0.929809
-1.0388
-1.14994
-1.26288
-1.37728
-1.49275
-1.60894
-1.72542
-1.84179
-1.95744
-2.07194
-2.18475
-2.29522
-2.40273
-2.50671
-2.60632
-2.7008
-2.78944
-2.87135
-2.94564
-3.01142
-3.06773
-3.11354
-3.14785
-3.16961
-3.17772
-3.17107
-3.14854
-3.10901
-3.05135
-2.9745
-2.87733
-2.75882
-2.61803
-2.45405
-2.2661
-2.05355
-1.81596
-1.55315
-1.26517
-0.952541
-0.616089
-0.257328
0.12153
0.517346
0.925866
1.3415
1.75691
2.16218
2.54469
2.88788
3.17045
3.36468
3.43349
3.32937
2.98738
2.32426
1.21821
-0.473451
-3.0228
-6.60698
-12.0824
-19.0496
-31.5359
-43.4295
-77.67
-89.9362
-206.275
-189.652
-614.68
-0.094661
-0.110559
-0.13517
-0.169952
-0.216259
-0.273103
-0.338929
-0.413051
-0.495222
-0.58509
-0.682163
-0.786044
-0.896419
-1.01299
-1.13546
-1.26358
-1.39709
-1.53574
-1.67927
-1.82746
-1.98006
-2.13678
-2.29738
-2.46157
-2.62906
-2.7995
-2.97251
-3.14773
-3.32479
-3.50325
-3.68253
-3.86223
-4.0418
-4.22059
-4.39803
-4.57342
-4.74609
-4.91539
-5.08051
-5.24053
-5.39474
-5.54228
-5.68221
-5.81368
-5.93573
-6.04747
-6.148
-6.23636
-6.31173
-6.37316
-6.41998
-6.45137
-6.46672
-6.46558
-6.44752
-6.41245
-6.36042
-6.2919
-6.20754
-6.1085
-5.9967
-5.87452
-5.7452
-5.6133
-5.48418
-5.36542
-5.26629
-5.19898
-5.17873
-5.22509
-5.36337
-5.62612
-6.05502
-6.70526
-7.64969
-8.98184
-10.8388
-13.375
-16.8996
-21.5809
-28.4195
-36.8087
-51.5123
-64.9829
-103.838
-116.687
-243.945
-225.623
-670.881
-0.518219
-0.548148
-0.575149
-0.617537
-0.67773
-0.750718
-0.833943
-0.927396
-1.0311
-1.14447
-1.26689
-1.39796
-1.53736
-1.68478
-1.83992
-2.00255
-2.1724
-2.34928
-2.53297
-2.72325
-2.91993
-3.12284
-3.33172
-3.54633
-3.76645
-3.99182
-4.22215
-4.45717
-4.69653
-4.9398
-5.1867
-5.43678
-5.68955
-5.94446
-6.20117
-6.45902
-6.71729
-6.97563
-7.23319
-7.48936
-7.74347
-7.99479
-8.24253
-8.48604
-8.72451
-8.95715
-9.18338
-9.40236
-9.61361
-9.81639
-10.0103
-10.1949
-10.3699
-10.5351
-10.6906
-10.8369
-10.9744
-11.1041
-11.2276
-11.3467
-11.4642
-11.5832
-11.7083
-11.8452
-12.0009
-12.1844
-12.4071
-12.6835
-13.0311
-13.4729
-14.0379
-14.7631
-15.6963
-16.8982
-18.4504
-20.4558
-23.0669
-26.4478
-30.9471
-36.7137
-44.9085
-54.6694
-71.5738
-86.4624
-129.816
-142.959
-280.065
-260.458
-729.55
-0.927143
-0.975071
-1.0021
-1.05216
-1.12783
-1.21801
-1.31922
-1.4326
-1.55846
-1.69592
-1.84421
-2.00294
-2.17181
-2.35051
-2.53875
-2.73631
-2.94294
-3.15849
-3.3828
-3.61567
-3.85697
-4.10656
-4.36426
-4.62993
-4.90338
-5.18446
-5.47294
-5.76859
-6.0712
-6.38042
-6.6959
-7.01749
-7.34477
-7.67731
-8.01468
-8.35642
-8.70214
-9.05133
-9.40342
-9.75782
-10.114
-10.4715
-10.8295
-11.1877
-11.5453
-11.9019
-12.2569
-12.6099
-12.9605
-13.3084
-13.6533
-13.995
-14.3339
-14.67
-15.004
-15.3366
-15.6691
-16.0029
-16.3402
-16.6837
-17.037
-17.4044
-17.7916
-18.2054
-18.6544
-19.1496
-19.704
-20.3344
-21.0616
-21.9114
-22.9173
-24.12
-25.5729
-27.344
-29.5237
-32.2241
-35.6137
-39.8654
-45.371
-52.2519
-61.8493
-73.0032
-92.1851
-108.492
-156.388
-170.028
-316.217
-296.948
-760.978
-1.31977
-1.38909
-1.41339
-1.47157
-1.56454
-1.67298
-1.7928
-1.92681
-2.07551
-2.23766
-2.41232
-2.59921
-2.79801
-3.00841
-3.23016
-3.463
-3.70682
-3.96144
-4.22671
-4.50255
-4.7889
-5.08564
-5.39267
-5.70992
-6.03731
-6.37471
-6.72199
-7.07901
-7.4456
-7.82154
-8.20675
-8.60095
-9.00378
-9.41495
-9.83435
-10.2616
-10.696
-11.1375
-11.5857
-12.0401
-12.5003
-12.9658
-13.4362
-13.9112
-14.3904
-14.8733
-15.3597
-15.8493
-16.3421
-16.8378
-17.3366
-17.8388
-18.3449
-18.8554
-19.3712
-19.8939
-20.4249
-20.9665
-21.5218
-22.094
-22.6874
-23.3077
-23.9613
-24.6567
-25.4041
-26.2156
-27.1066
-28.0964
-29.2079
-30.4707
-31.9212
-33.6053
-35.5822
-37.9257
-40.7345
-44.1294
-48.2949
-53.4091
-59.9103
-67.8768
-78.8522
-91.3121
-112.719
-130.212
-182.42
-196.156
-349.748
-331.364
-800.907
-1.69467
-1.78789
-1.80652
-1.8737
-1.98603
-2.11379
-2.25287
-2.40827
-2.58058
-2.76803
-2.96963
-3.18514
-3.41434
-3.65689
-3.91252
-4.18105
-4.46238
-4.75643
-5.06304
-5.38228
-5.71408
-6.05836
-6.41518
-6.7845
-7.16633
-7.56064
-7.96731
-8.38642
-8.81779
-9.26142
-9.7171
-10.1848
-10.6643
-11.1556
-11.6581
-12.1719
-12.6967
-13.2321
-13.7782
-14.3343
-14.9003
-15.4759
-16.0609
-16.6549
-17.2579
-17.8696
-18.4899
-19.1189
-19.7566
-20.4033
-21.0592
-21.725
-22.4015
-23.0898
-23.7912
-24.5074
-25.2409
-25.9945
-26.7717
-27.5766
-28.4146
-29.2921
-30.2171
-31.1988
-32.2489
-33.3816
-34.6142
-35.9679
-37.4689
-39.1497
-41.0499
-43.2205
-45.7254
-48.6443
-52.0848
-56.175
-61.1156
-67.087
-74.5767
-83.6062
-95.9424
-109.64
-133.223
-151.751
-207.995
-221.778
-381.164
-364.95
-836.462
-2.0506
-2.16913
-2.17906
-2.25671
-2.39056
-2.53865
-2.69773
-2.87536
-3.07207
-3.28548
-3.51457
-3.75927
-4.01931
-4.2944
-4.5843
-4.88888
-5.20809
-5.54188
-5.89024
-6.25317
-6.63077
-7.02303
-7.43005
-7.85194
-8.28873
-8.74047
-9.20727
-9.68913
-10.1861
-10.6982
-11.2254
-11.7676
-12.3249
-12.8972
-13.4843
-14.0863
-14.703
-15.3341
-15.9796
-16.6394
-17.3133
-18.0012
-18.703
-19.4186
-20.1481
-20.8913
-21.6486
-22.4199
-23.2059
-24.0068
-24.8234
-25.6566
-26.5077
-27.3779
-28.2691
-29.1837
-30.1246
-31.0951
-32.0995
-33.1427
-34.2311
-35.3721
-36.5746
-37.8494
-39.2098
-40.6715
-42.2537
-43.9801
-45.8795
-47.9877
-50.3478
-53.0154
-56.0595
-59.5664
-63.6514
-68.4499
-74.1798
-81.0206
-89.5148
-99.613
-113.33
-128.249
-154.023
-173.556
-233.661
-247.788
-411.543
-399.387
-846.164
-2.38644
-2.53036
-2.52874
-2.61887
-2.77648
-2.94582
-3.12566
-3.32648
-3.54842
-3.78843
-4.04558
-4.31992
-4.61125
-4.91928
-5.24378
-5.58472
-5.94206
-6.31583
-6.70616
-7.11306
-7.53673
-7.97724
-8.43485
-8.90963
-9.40176
-9.91143
-10.4388
-10.984
-11.5472
-12.1284
-12.7278
-13.3454
-13.9815
-14.6359
-15.3088
-16.0001
-16.7099
-17.438
-18.1846
-18.9497
-19.7332
-20.5352
-21.3558
-22.195
-23.0531
-23.9302
-24.8267
-25.7431
-26.6799
-27.6379
-28.618
-29.6216
-30.6501
-31.7054
-32.7898
-33.906
-35.0576
-36.2486
-37.4838
-38.7692
-40.1118
-41.5201
-43.0038
-44.5756
-46.2497
-48.0439
-49.9797
-52.082
-54.3831
-56.9215
-59.7438
-62.9096
-66.493
-70.5859
-75.3117
-80.8114
-87.32
-95.0112
-104.487
-115.607
-130.661
-146.684
-174.549
-194.849
-258.401
-272.679
-438.527
-433.415
-862.794
-2.70106
-2.86911
-2.85341
-2.95869
-3.1423
-3.33372
-3.53517
-3.76018
-4.00816
-4.27542
-4.56118
-4.86566
-5.18868
-5.52996
-5.88933
-6.26687
-6.66258
-7.07661
-7.50905
-7.96013
-8.43008
-8.9191
-9.4275
-9.95551
-10.5034
-11.0713
-11.6597
-12.2687
-12.8986
-13.5496
-14.222
-14.9159
-15.6315
-16.3691
-17.1287
-17.9104
-18.7145
-19.5411
-20.3902
-21.2622
-22.157
-23.0749
-24.0162
-24.981
-25.9698
-26.9829
-28.021
-29.0847
-30.1749
-31.2925
-32.4388
-33.6154
-34.8243
-36.0676
-37.3481
-38.6692
-40.0346
-41.4491
-42.9182
-44.4489
-46.0488
-47.7273
-49.4957
-51.3674
-53.3584
-55.4877
-57.7791
-60.2596
-62.9635
-65.9327
-69.2174
-72.8808
-77.0017
-81.6766
-87.0368
-93.2273
-100.501
-109.019
-119.451
-131.54
-147.882
-164.898
-194.739
-215.615
-282.155
-296.556
-462.319
-463.124
-886.896
-2.99346
-3.18286
-3.15116
-3.27488
-3.48666
-3.70091
-3.92491
-4.1752
-4.45007
-4.74523
-5.06014
-5.39523
-5.75031
-6.12515
-6.51968
-6.93401
-7.36827
-7.82271
-8.29747
-8.79292
-9.30936
-9.84708
-10.4065
-10.988
-11.5918
-12.2185
-12.8683
-13.5416
-14.2389
-14.9603
-15.7063
-16.4773
-17.2735
-18.0952
-18.9427
-19.8161