/*--------------------------------*- C++ -*----------------------------------*\
  =========                 |
  \\      /  F ield         | OpenFOAM: The Open Source CFD Toolbox
   \\    /   O peration     | Website:  https://openfoam.org
    \\  /    A nd           | Version:  11
     \\/     M anipulation  |
\*---------------------------------------------------------------------------*/
FoamFile
{
    format      ascii;
    class       surfaceScalarField;
    location    "500";
    object      phi;
}
// * * * * * * * * * * * * * * * * * * * * * * * * * * * * * * * * * * * * * //

dimensions      [0 3 -1 0 0 0 0];

internalField   nonuniform List<scalar> 
62845
(
422019
-1.89559e+06
1.90572e+06
396374
-1.80374e+06
1.82939e+06
379146
-1.71301e+06
1.73024e+06
359562
-1.62671e+06
1.6463e+06
342013
-1.5446e+06
1.56215e+06
324626
-1.46655e+06
1.48394e+06
308471
-1.39216e+06
1.40832e+06
292934
-1.32145e+06
1.33699e+06
278212
-1.2542e+06
1.26893e+06
264183
-1.19031e+06
1.20434e+06
250910
-1.12963e+06
1.14291e+06
238329
-1.07197e+06
1.08455e+06
226292
-1.01712e+06
1.02916e+06
214972
-965150
976470
204103
-915646
926515
193919
-868764
878948
184150
-824097
833866
174883
-781799
791066
166150
-741612
750344
157839
-703385
711697
149884
-667117
675071
142422
-632752
640214
135292
-599990
607120
128531
-568978
575739
122128
-539512
545916
116021
-511492
517599
110250
-484962
490733
104756
-459723
465217
99579.2
-435821
440998
94561.2
-413005
418023
89893
-391473
396141
85417.2
-370971
375447
81175
-351549
355791
77159.8
-333056
337071
73315.6
-315539
319383
69684.7
-298897
302528
66211.2
-283127
286600
62939
-268130
271402
59813.1
-253898
257024
56838.1
-240399
243374
54008.7
-227588
230418
51320.4
-215429
218117
48758.8
-203884
206446
46324.5
-192933
195368
44003.8
-182535
184856
41797.6
-172669
174875
39688.1
-163303
165412
37686
-154421
156423
35774.1
-145983
147895
33953.9
-137982
139802
32217.8
-130383
132119
30563.1
-123175
124829
28978.2
-116327
117912
27474.2
-109837
111341
26035.1
-103671
105110
24658.7
-97813
99189.3
23347.6
-92260.9
93572
22090.8
-86985.6
88242.4
20895.2
-81975.7
83171.4
19750.2
-77220.6
78365.5
18654.2
-72704.5
73800.6
17605.4
-68412.4
69461.2
16602.3
-64337.7
65340.8
15643.4
-60465.4
61424.2
14723.1
-56784.6
57705
13843.9
-53284.9
54164
12996.5
-49955.6
50803
12183.6
-46790.3
47603.2
11407.8
-43782.3
44558.1
10659.9
-40909.5
41657.4
9938.82
-38177.1
38898.2
9247.02
-35570.8
36262.6
8583.2
-33087.7
33751.5
7938.91
-30710.2
31354.5
7319.94
-28438.8
29057.8
6718.77
-26265.5
26866.7
6137.54
-24179.8
24761
5573.53
-22176.5
22740.5
5024.97
-20246.9
20795.4
4490
-18384
18919
3966.88
-16579.9
17103
3453.72
-14826.4
15339.5
2948.9
-13114.9
13619.7
2450.14
-11437.4
11936.1
1955.89
-9783.4
10277.7
1466.36
-8148.9
8638.43
978.827
-6518.78
7006.32
512.876
-4924.23
5390.18
-3268.12
3781
513233
-1.87238e+06
487502
-1.77801e+06
463525
-1.68903e+06
440475
-1.60366e+06
418455
-1.52258e+06
397390
-1.44549e+06
377419
-1.37219e+06
358400
-1.30243e+06
340308
-1.23611e+06
323161
-1.17317e+06
306846
-1.11332e+06
291341
-1.05646e+06
276679
-1.00246e+06
262689
-951160
249455
-902412
236857
-856166
224930
-812170
213556
-770425
202770
-730826
192559
-693174
182907
-657464
173650
-623496
164928
-591268
156576
-560627
148685
-531621
141242
-504049
134138
-477858
127362
-452947
120905
-429364
114858
-406958
109112
-385726
103610
-365469
98345.3
-346284
93407
-328118
88690.8
-310823
84238.7
-294445
79996.5
-278884
75956.6
-264090
72099.4
-250040
68453
-236753
64979.3
-224115
61677.9
-212127
58538.4
-200745
55548.3
-189943
52701.8
-179689
49996.3
-169963
47422.6
-160729
44968
-151966
42633.8
-143649
40407.4
-135756
38290.6
-128266
36271.1
-121155
34351
-114407
32513.8
-108000
30761.8
-101919
29097.2
-96148.3
27504.3
-90668
25985.4
-85466.6
24534.2
-80524.6
23148.8
-75835.1
21827.2
-71383
20563.6
-67148.8
19360.4
-63134.5
18203.3
-59308.3
17099.2
-55680.5
16046.5
-52232.1
15039.5
-48948.7
14073
-45823.8
13145.5
-42854.8
12255.7
-40019.7
11406
-37327.4
10591.3
-34756
9802.78
-32299.2
9046.63
-29954
8321.27
-27713.4
7620.78
-25565
6944.13
-23503.2
6289.86
-21522.2
5655.81
-19612.8
5040.07
-17768.3
4440.58
-15980.4
3855.26
-14241
3281.77
-12541.4
2718.26
-10873.8
2162.42
-9227.56
1613.77
-7600.24
1071.43
-5976.45
546.617
-4399.41
-2721.51
606213
-1.84135e+06
576255
-1.74805e+06
547454
-1.66023e+06
520046
-1.57626e+06
493971
-1.4965e+06
469092
-1.42061e+06
445415
-1.34851e+06
422931
-1.27995e+06
401569
-1.21475e+06
381254
-1.15285e+06
361977
-1.09404e+06
343665
-1.03815e+06
326298
-985094
309757
-934619
294073
-886728
279181
-841273
265060
-798050
251697
-757061
238924
-718053
226826
-681076
215289
-645928
204402
-612609
194050
-580916
184270
-550847
174902
-522252
166034
-495181
157605
-469430
149656
-444998
142078
-421786
134861
-399741
127948
-378813
121477
-358998
115343
-340150
109440
-322215
103908
-305291
98592.5
-289129
93538
-273830
88745.6
-259298
84225.9
-245521
79900.7
-232428
75796.9
-220011
71890.6
-208221
68173.8
-197028
64645.1
-186414
61286.7
-176330
58090.3
-166767
55051.6
-157690
52157.2
-149072
49403.4
-140895
46778.7
-133131
44279.2
-125767
41902.3
-118778
39635.6
-112140
37481.5
-105846
35423.4
-99860.9
33463.8
-94188.7
31600
-88804.2
29816.7
-83683.4
28120.5
-78828.3
26505.1
-74219.7
24955.5
-69833.3
23482.8
-65676.1
22072.3
-61724
20735.1
-57971.1
19452.7
-54398.1
18223.6
-51003.1
17050.4
-47775.4
15931.4
-44704.7
14857.3
-41780.7
13834.3
-38996.7
12853.4
-36346.5
11909.4
-33812
11008.2
-31398.1
10144.7
-29090.5
9310.76
-26879.5
8509.87
-24764.1
7739.77
-22733.1
6996.57
-20779
6278.65
-18894.9
5583.92
-17073.6
4909.42
-15305.9
4253.2
-13584.8
3612.66
-11900.9
2985.49
-10246.7
2369.33
-8611.4
1762.71
-6993.62
1166.51
-5380.26
584.519
-3817.42
-2136.99
698337
-1.80459e+06
663422
-1.71314e+06
630055
-1.62686e+06
598398
-1.5446e+06
568169
-1.46627e+06
539522
-1.39196e+06
512279
-1.32127e+06
486335
-1.25401e+06
461766
-1.19018e+06
438368
-1.12946e+06
416149
-1.07182e+06
395098
-1.0171e+06
374996
-964991
356024
-915647
337961
-868665
320841
-824153
304544
-781753
289056
-741573
274409
-703407
260490
-667157
247235
-632672
234678
-600052
222757
-568995
211411
-539501
200677
-511519
190444
-484948
180752
-459737
171540
-435787
162799
-413045
154470
-391412
146594
-370937
139115
-351519
131971
-333007
125209
-315453
118769
-298851
112696
-283056
106882
-268016
101374
-253790
96134
-240281
91161.1
-227455
86427.8
-215277
81927.5
-203721
77655.6
-192756
73584
-182343
69719.3
-172466
66044.5
-163092
62543.1
-154189
59216.7
-145746
56048.1
-137726
53036.5
-130120
50171.8
-122902
47439.5
-116046
44843.2
-109544
42365.3
-103368
40012.6
-97508.2
37764.5
-91940.6
35623.3
-86662.9
33590.7
-81650.8
31647.3
-76885
29795
-72367.5
28036.5
-68074.8
26352.2
-63991.8
24749.1
-60121
23212.6
-56434.5
21753.7
-52939.2
20362.1
-49611.5
19032.1
-46445.4
17758.4
-43431
16546.9
-40569.2
15384.7
-37834.5
14273.9
-35235.7
13213.2
-32751.3
12193.4
-30378.3
11216.9
-28114
10284.3
-25946.9
9387.54
-23867.3
8525.09
-21870.6
7695.35
-19949.3
6895.61
-18095.1
6123.12
-16301.1
5375.89
-14558.7
4650.46
-12859.4
3944.82
-11195.2
3255.73
-9557.58
2580.66
-7936.33
1917.81
-6330.77
1267.46
-4729.91
626.331
-3176.29
-1510.65
788434
-1.76267e+06
748795
-1.6735e+06
710988
-1.58906e+06
675106
-1.50872e+06
641063
-1.43223e+06
608602
-1.3595e+06
577772
-1.29044e+06
548552
-1.22479e+06
520761
-1.16239e+06
494381
-1.10308e+06
469348
-1.04679e+06
445482
-993233
422913
-942423
401430
-894164
381054
-848289
361674
-804773
343318
-763397
325871
-724125
309267
-686803
293541
-651431
278628
-617759
264415
-585839
250939
-555518
238187
-526749
226047
-499379
214509
-473410
203562
-448790
193146
-425371
183251
-403150
173869
-382030
164989
-362058
156455
-342985
148459
-325011
140843
-307836
133551
-291560
126626
-276131
120110
-261500
113884
-247563
107972
-234369
102348
-221831
97003.1
-209932
91927.4
-198645
87100.3
-187929
82512.9
-177755
78146.8
-168100
73996.9
-158942
70051.5
-150244
66296.2
-141990
62726.6
-134157
59331.9
-126725
56097.8
-119668
53022.7
-112971
50092.6
-106614
47310.4
-100585
44654.9
-94852.7
42133
-89418.6
39728.2
-84258.2
37434
-79356.6
35256.7
-74707.6
33176.7
-70287.5
31196.3
-66094.3
29309
-62104.5
27508.6
-58320.6
25793.5
-54719.4
24157.3
-51303
22594.2
-48048.5
21106.8
-44958
19688.9
-42013.1
18327.3
-39207.6
17031.9
-36539.2
15793.6
-33997.4
14606.7
-31564.4
13477.2
-29248.8
12392.6
-27029.4
11353.2
-24907.5
10356.5
-22870.7
9400.32
-20914.4
8480.65
-19029.6
7595.88
-17210.4
6742.47
-15447.7
5917.42
-13733.6
5118.13
-12060.1
4341.27
-10418.4
3583.71
-8800.03
2842.16
-7194.78
2113.81
-5602.42
1398.21
-4014.3
684.377
-2462.46
-826.281
876330
-1.71598e+06
832070
-1.62924e+06
790041
-1.54703e+06
750057
-1.46873e+06
712124
-1.3943e+06
676087
-1.32346e+06
641849
-1.2562e+06
609326
-1.19226e+06
578387
-1.13145e+06
549056
-1.07374e+06
521180
-1.01891e+06
494774
-966827
469612
-917261
445782
-870333
423122
-825629
401595
-783247
381143
-742945
361759
-704742
343359
-668403
325840
-633913
309234
-601153
293478
-570083
278509
-540549
264263
-512503
250730
-485846
237948
-460628
225707
-436549
214145
-413809
203156
-392161
192778
-371652
182804
-352083
173474
-333656
164483
-316020
155971
-299325
147932
-283521
140262
-268460
132950
-254189
126048
-240661
119465
-227786
113215
-215582
107279
-203996
101632
-192997
96263.5
-182561
91164.6
-172657
86316.6
-163252
81701.8
-154327
77319.9
-145862
73152.4
-137823
69188.2
-130193
65412.9
-122950
61826.7
-116082
58414.9
-109559
55164.9
-103364
52073.1
-97493.7
49135.9
-91915.5
46334
-86616.7
43668.5
-81592.7
41133.1
-76821.2
38716.3
-72290.8
36415.7
-67986.9
34220.4
-63898.9
32137.1
-60021.3
30146.6
-56330.1
28255.3
-52828.1
26444.5
-49492.2
24725
-46328.9
23078.4
-43311.5
21511.2
-40445.9
20017.6
-37714
18591.8
-35113.4
17224.5
-32630.1
15925.6
-30265.4
14681.9
-28005.1
13491.8
-25839.3
12350.7
-23766.4
11259
-21779
10212.3
-19867.7
9207.62
-18024.9
8241.56
-16244.3
7311.1
-14517.2
6413.04
-12835.6
5544.03
-11191.1
4700.72
-9575.07
3879.14
-7978.45
3075.58
-6391.22
2286.78
-4813.61
1506.51
-3234.03
711.205
-1667.16
-115.073
961697
-1.66478e+06
913017
-1.58056e+06
866789
-1.5008e+06
822962
-1.42491e+06
781222
-1.35256e+06
741670
-1.28391e+06
704052
-1.21859e+06
668348
-1.15656e+06
634491
-1.09759e+06
602248
-1.0415e+06
571692
-988355
542611
-937746
515040
-889690
488840
-844134
463997
-800786
440349
-759599
417932
-720527
396606
-683416
376392
-648189
357192
-614713
339009
-582970
321671
-552745
305220
-524098
289593
-496876
274778
-471031
260663
-446513
247287
-423173
234592
-401114
222517
-380086
211053
-360187
200192
-341223
189825
-323289
179996
-306190
170695
-290024
161818
-274644
153407
-260048
145411
-246193
137794
-233044
130575
-220567
123715
-208722
117193
-197473
110993
-186798
105104
-176672
99504.1
-167057
94179.8
-157927
89122
-149270
84308.3
-141048
79734.4
-133249
75382.5
-125841
71248.3
-118815
67311.3
-112145
63572.6
-105820
60013.7
-99804.7
56628.4
-94108.3
53404.6
-88691.8
50339.7
-83551.9
47421.9
-78674.9
44643.8
-74043.1
41999.1
-69646.1
39485.4
-65473.2
37091.3
-61504.9
34806.4
-57736.4
32632.9
-54156.6
30564.4
-50759.6
28594.8
-47522.6
26709.6
-44443.7
24923.5
-41525.3
23214.2
-38736.6
21588
-36087.8
20031.3
-33556.6
18553.9
-31152.8
17135.2
-28846.7
15784.6
-26654.5
14492.5
-24547.2
13259.2
-22533.1
12078.4
-20598.2
10946.8
-18736.2
9862.58
-16940.7
8820.99
-15202.7
7819.68
-13515.9
6854.84
-11870.7
5922.95
-10259.2
5019.96
-8672.08
4142.2
-7100.69
3284.55
-5533.57
2443.44
-3972.5
1606.33
-2396.92
762.471
-823.296
647.394
1.04439e+06
-1.60917e+06
991540
-1.52771e+06
941330
-1.45059e+06
893596
-1.37717e+06
848337
-1.3073e+06
805332
-1.2409e+06
764474
-1.17773e+06
725675
-1.11776e+06
688825
-1.06074e+06
653835
-1.00651e+06
620594
-955114
589066
-906218
559132
-859756
530632
-815634
503586
-773739
477985
-733998
453604
-696146
430483
-660295
408493
-626198
387638
-593858
367787
-563119
348985
-533944
331121
-506234
314121
-479876
298034
-454944
282696
-431175
268197
-408674
254376
-387293
241274
-366984
228833
-347746
216993
-329383
205747
-312043
195087
-295530
184955
-279893
175296
-264985
166152
-250904
157461
-237503
149205
-224788
141356
-212718
133894
-201261
126810
-190389
120076
-180063
113678
-170274
107590
-160969
101812
-152149
96316.6
-143774
91088.8
-135820
86120.5
-128280
81403.1
-121123
76910.7
-114323
72644.1
-107878
68574.6
-101751
64716.1
-95946.2
61040.9
-90433.1
57547
-85197.9
54226
-80230.9
51061.4
-75510.3
48052.4
-71034
45186.9
-66780.7
42462.1
-62748.4
39867.6
-58910.4
37396
-55264.8
35045.9
-51806.5
32806.5
-48520.2
30671.4
-45387.5
28643.1
-42415.5
26707
-39589.2
24865.4
-36895
23104.6
-34327
21434.4
-31886.4
19833.5
-29551.9
18311.6
-27324.8
16856
-25198.9
15469.2
-23160.5
14143
-21206.9
12875.2
-19330.4
11662.8
-17523.7
10500.8
-15778.8
9387.81
-14089.7
8318.21
-12446.3
7289.79
-10842.3
6297.97
-9267.37
5338.55
-7712.67
4407.15
-6169.29
3498.82
-4625.24
2608.31
-3081.99
1719.38
-1508
866.693
29.3934
1514.09
1.12411e+06
-1.54926e+06
1.06725e+06
-1.47084e+06
1.01321e+06
-1.39655e+06
961894
-1.32586e+06
913175
-1.25858e+06
866817
-1.19455e+06
822903
-1.13381e+06
781104
-1.07596e+06
741427
-1.02107e+06
703832
-968916
668005
-919287
634055
-872268
601798
-827499
571166
-785003
542087
-744660
514449
-706360
488228
-669925
463308
-635376
439680
-602570
417168
-571346
395865
-541816
375561
-513639
356332
-487005
338080
-461623
320685
-437549
304231
-414721
288567
-393010
273730
-372456
259560
-352814
246149
-334335
233437
-316671
221318
-299924
209784
-283995
198877
-268986
188539
-254647
178657
-241022
169294
-228139
160397
-215891
151946
-204268
143913
-193228
136282
-182758
129032
-172814
122135
-163377
115588
-154422
109359
-145920
103438
-137853
97817.5
-130200
92468.5
-122931
87383.5
-116038
82552.1
-109491
77955.5
-103282
73588.2
-97383.5
69429.4
-91787.5
65479.3
-86482.9
61719
-81437.6
58138.6
-76650.5
54739.5
-72111.2
51504.2
-67798.7
48425.9
-63702.4
45494.9
-59817.4
42707.9
-56123.4
40054.3
-52611.2
37527.2
-49279.4
35120.3
-46113.2
32835.8
-43103
30654.9
-40234.5
28575.9
-37510.2
26596.7
-34915.9
24715.1
-32445.4
22917.7
-30089
21206.3
-27840.5
19575.3
-25693.8
18015.3
-23638.9
16528.5
-21673.7
15109.2
-19787.6
13752.7
-17973.9
12455.7
-16226.7
11214.5
-14537.5
10024.4
-12899.6
8882.89
-11304.8
7784.85
-9744.28
6726.51
-8209.03
5703.23
-6689.39
4710.1
-5176.15
3741.43
-3656.58
2790.09
-2130.64
1841.33
-559.24
935.878
934.846
2449.96
1.2009e+06
-1.48533e+06
1.14017e+06
-1.41011e+06
1.08245e+06
-1.33883e+06
1.02759e+06
-1.271e+06
975512
-1.2065e+06
926047
-1.14508e+06
879057
-1.08682e+06
834470
-1.03137e+06
792072
-978668
751819
-928663
713659
-881127
677305
-835914
642844
-793038
610150
-752309
579062
-713571
549497
-676795
521506
-641934
494861
-608731
469597
-577306
445604
-547353
422765
-518977
401114
-491988
380548
-466439
360995
-442070
342494
-419049
324845
-397072
308127
-376292
292183
-356512
277153
-337784
262781
-319962
249157
-303047
236222
-286990
223970
-271743
212245
-257261
201139
-243541
190644
-230527
180631
-218126
171125
-206384
162085
-195227
153499
-184642
145340
-174599
137587
-165061
130221
-156011
123222
-147423
116568
-139266
110248
-131533
104235
-124187
98520.5
-117217
93086.9
-110605
87925.5
-104330
83014.4
-98370.7
78344.1
-92713.3
73910
-87353.4
69687.5
-82260.4
65671
-77421.1
61856.4
-72835.9
58227.9
-68482.7
54768.8
-64339.6
51488.2
-60421.8
48357.1
-56686.4
45381.3
-53147.5
42557
-49787
39864.7
-46587
37297.7
-43546.3
34858.1
-40663.4
32536.1
-37912.6
30325.1
-35299.1
28219.1
-32809.9
26212.1
-30438.5
24298.3
-28175.2
22475.9
-26018.1
20739
-23956.8
19085.3
-21985.2
17505.9
-20094.2
15998.3
-18280.1
14558.9
-16534.5
13182.8
-14850.6
11866.9
-13221.6
10606.6
-11639.4
9397.55
-10095.7
8235.8
-8582.53
7116.88
-7090.11
6035.72
-5608.22
4986.83
-4127.26
3963.5
-2633.25
2959.05
-1126.18
1959.8
440.013
994.694
1899.95
3444.66
1.27437e+06
-1.41754e+06
1.20998e+06
-1.34571e+06
1.14872e+06
-1.27757e+06
1.09056e+06
-1.21283e+06
1.03527e+06
-1.15122e+06
982771
-1.09258e+06
932895
-1.03695e+06
885511
-983990
840605
-933762
797845
-885904
757261
-840543
718777
-797430
682181
-756442
647391
-717519
614406
-680586
583100
-645489
553347
-612181
525088
-580472
498213
-550431
472748
-521888
448541
-494770
425567
-469014
403659
-444531
382975
-421385
363238
-399312
344548
-378382
326783
-358527
309937
-339666
293862
-321709
278636
-304737
264157
-288567
250415
-273248
237404
-258732
225016
-244873
213241
-231766
202033
-219319
191403
-207497
181304
-196285
171708
-185632
162596
-175530
153930
-165933
145702
-156833
137875
-148184
130441
-139988
123379
-132205
116666
-124820
110285
-117806
104220
-111152
98456.6
-104842
92973.4
-98846.8
87764.6
-93161.9
82813.2
-87761.8
78104.5
-82644.7
73623.9
-77779.7
69366.9
-73164.1
65317.7
-68786.7
61464.1
-64629.1
57810.4
-60685.9
54322
-56933.3
51011
-53375.4
47857.4
-49993.9
44856.8
-46786.3
42006.5
-43736.8
39296.8
-40836.5
36706.4
-38073
34251.1
-35457.2
31912.2
-32960.3
29683.6
-30581.2
27559.4
-28314.3
25541.5
-26157.2
23619.8
-24096.4
21788.8
-22125.9
20039.4
-20235.7
18374.3
-18429.2
16785.7
-16691.5
15270.3
-15019.1
13823
-13403.3
12440
-11838.6
11116.6
-10316
9849.09
-8828.16
8632.89
-7366.33
7462.65
-5919.87
6333.64
-4479.22
5240.15
-3033.78
4173.74
-1566.84
3126.67
-79.1065
2089.76
1476.92
1078.65
2911.06
4523.3
1.34446e+06
-1.34598e+06
1.27649e+06
-1.27774e+06
1.21194e+06
-1.21302e+06
1.15056e+06
-1.15146e+06
1.09223e+06
-1.09289e+06
1.0369e+06
-1.03725e+06
984263
-984310
934316
-934042
886825
-886271
841775
-840854
798946
-797714
758314
-756799
719704
-717831
683055
-680869
648233
-645765
615137
-612392
583698
-580742
553900
-550674
525568
-522098
498656
-494976
473074
-469188
448838
-444777
425821
-421514
403914
-399478
383100
-378498
363371
-358653
344625
-339781
326745
-321786
309876
-304840
293805
-288665
278527
-273290
264036
-258756
250223
-244919
237150
-231800
224718
-219333
212904
-207505
201689
-196281
191026
-185622
180895
-175501
171272
-165908
162127
-156787
153435
-148141
145187
-139936
137340
-132141
129879
-124744
122792
-117733
116058
-111072
109658
-104751
103575
-98759.1
97794.3
-93065.8
92291.8
-87659.5
87068.5
-82538.5
82099.9
-77676.1
77375.9
-73055.8
72888.4
-68676.6
68620.6
-64518.9
64559.7
-60568.2
60695.8
-56822
57025.4
-53262.8
53536.8
-49886.9
50219.1
-46676.2
47058.7
-43625.9
44053
-40731.2
41191
-37974.5
38477.7
-35359.7
35887.7
-32867.2
33422.4
-30495
31081.3
-28240.1
28853.5
-26086.5
26729.3
-24033.1
24706.8
-22073.9
22781.6
-20200.6
20950
-18404.2
19203.4
-16682.5
17538.9
-15027.1
15951
-13431.2
14436.5
-11888.7
12990.4
-10392.5
11608.4
-8934.06
10286.2
-7505.91
9018.6
-6098.75
7801.84
-4703.11
6629.53
-3306.91
5495.76
-1900
4389.07
-460.157
3307.8
1002.16
2235.62
2549.09
1183.15
3963.54
5706.45
1.411e+06
-1.27102e+06
1.33973e+06
-1.20647e+06
1.27192e+06
-1.14521e+06
1.20756e+06
-1.0871e+06
1.14639e+06
-1.03172e+06
1.08828e+06
-979142
1.03307e+06
-929100
980685
-881654
930841
-836427
883578
-793591
838669
-752804
795944
-714074
755446
-677333
716991
-642414
680424
-609198
645758
-577726
612795
-547779
581468
-519347
551702
-492332
523488
-466763
496673
-442374
471175
-419279
446999
-397339
424021
-376500
402189
-356666
381444
-337908
361769
-320106
343106
-303123
325302
-287037
308391
-271755
292425
-257324
277189
-243521
262708
-230438
248961
-218053
235906
-206278
223506
-195105
211724
-184499
200525
-174423
189898
-164873
179785
-155795
170189
-147190
161065
-139017
152392
-131264
144154
-123903
136331
-116921
128889
-110291
121817
-104000
115099
-98033
108708
-92368.5
102634
-86991.3
96865.4
-81891.1
91382.1
-77055.2
86165.7
-72459.6
81206.6
-68096.7
76492.7
-63962.7
72012
-60038.2
67749.8
-56306.1
63700.3
-52772.5
59846.3
-49408.9
56178.9
-46219.4
52691.9
-43189.2
49380.7
-40314.7
46226.3
-37576.8
43226.2
-34974.4
40372
-32505.6
37659.3
-30154.4
35078.2
-27913.9
32620
-25781.9
30280.3
-23746.7
28052.6
-21805.4
25931.3
-19952.5
23912.7
-18182.1
21989.5
-16480.9
20156.6
-14849.6
18409.8
-13280.3
16744
-11765.4
15154.8
-10299.5
13636.5
-8874.23
12185.6
-7483.12
10796.8
-6117.18
9465.27
-4767.18
8185.42
-3423.27
6951.3
-2072.78
5755.62
-704.329
4585.59
709.878
3440.99
2146.76
2295.02
3695.07
1168.54
5090.01
6874.99
1.47375e+06
-1.19265e+06
1.39932e+06
-1.13203e+06
1.32859e+06
-1.07448e+06
1.26133e+06
-1.01984e+06
1.19744e+06
-967833
1.13676e+06
-918458
1.07915e+06
-871491
1.02435e+06
-826852
972381
-784463
922932
-744142
876020
-705892
831498
-669551
789167
-635002
748931
-602179
710767
-571034
674462
-541422
640036
-513353
607342
-486653
576305
-461295
546763
-437221
518760
-414370
492133
-392652
466851
-372057
442827
-352476
420045
-333884
398378
-316242
377734
-299462
358212
-283601
339679
-268503
322040
-254117
305238
-240521
289343
-227625
274243
-215339
259884
-203693
246243
-192638
233281
-182143
220967
-172184
209270
-162727
198152
-153755
187592
-145235
177555
-137154
168024
-129485
158964
-122204
150355
-115294
142169
-108735
134400
-102521
127011
-96612.3
119988
-91009.5
113311
-85691.3
106971
-80651.3
100943
-75863.4
95209.3
-71321.4
89761.3
-67011.6
84587.4
-62922.8
79666.6
-59041.9
74980.7
-55352.3
70534
-51859.3
66298.9
-48537.4
62278.6
-45388.6
58455.9
-42396.7
54818.3
-39551.7
51355.3
-36851.6
48066.4
-34288
44941.6
-31849.5
41963.7
-29527.7
39132.6
-27323.3
36439.6
-25220.9
33876.5
-23218.9
31440.8
-21311
29122.1
-19486.7
26916.1
-17746.5
24813
-16079
22811.8
-14479.7
20906.6
-12944.4
19091.3
-11465
17361.1
-10035.3
15711.1
-8649.42
14137.2
-7300.38
12633.6
-5979.44
11195.8
-4679.38
9818.85
-3390.27
8497.06
-2101.48
7223.21
-798.937
5989.45
529.436
4789.24
1910.09
3615.17
3320.83
2433.9
4876.34
1267.71
6256.2
8142.7
1.53265e+06
-1.11128e+06
1.4552e+06
-1.05458e+06
1.38166e+06
-1.00094e+06
1.31174e+06
-949921
1.24533e+06
-901421
1.18224e+06
-855366
1.12231e+06
-811561
1.06537e+06
-769911
1.01125e+06
-730344
959879
-692774
911100
-657112
864725
-623177
820696
-590973
778902
-560384
739166
-531298
701472
-503728
665615
-477496
631571
-452609
599280
-429004
568580
-406522
539398
-385187
511730
-364985
485425
-345752
460458
-327509
436718
-310144
414155
-293678
392810
-278117
372464
-263255
353117
-249156
334769
-235768
317368
-223121
300791
-211049
285064
-199611
270117
-188747
255922
-178442
242438
-168659
229623
-159370
217448
-150553
205884
-142191
194896
-134246
184459
-126717
174534
-119561
165109
-112779
156148
-106333
147640
-100227
139550
-94430.7
131860
-88922.8
124558
-83707.2
117620
-78753.7
111020
-74051.3
104750
-69592.9
98786.3
-65358.1
93120.7
-61346
87735.6
-57537.6
82613.1
-53919.5
77749.8
-50489
73123.5
-47233
68724.8
-44138.8
64544.4
-41208.2
60569.7
-38422
56788.5
-35770.5
53194.3
-33257.4
49778.5
-30872.2
46529.5
-28600.5
43439.7
-26437.9
40499.3
-24382.8
37703.5
-22425.1
35048.1
-20563.5
32518
-18781
30111.7
-17080.4
27822.1
-15456.9
25644
-13900.9
23572
-12407.7
21599.1
-10971.5
19720.6
-9586.45
17931.9
-8246.61
16227.4
-6944.89
14602.1
-5675.15
13051.6
-4428.87
11570.7
-3198.48
10153.9
-1973.53
8795.58
-743.117
7487.88
508.761
6226.81
1790.5
5001.06
3135.84
3804.92
4516.97
2598.11
6083.14
1402.68
7451.64
9545.38
1.58741e+06
-1.02687e+06
1.50731e+06
-974478
1.43112e+06
-924749
1.35877e+06
-877564
1.28998e+06
-832634
1.22461e+06
-790001
1.16253e+06
-749482
1.10358e+06
-710960
1.04754e+06
-674303
994375
-639607
943783
-606519
895793
-575187
850186
-545366
806894
-517093
765749
-490153
726699
-464677
689558
-440355
654326
-417377
620840
-395519
589035
-374716
558849
-355002
530166
-336301
502881
-318467
477029
-301657
452458
-285573
429108
-270328
406911
-255920
385809
-242152
365800
-229147
346835
-216803
328758
-205044
311597
-193887
295296
-183310
279814
-173265
265104
-163732
251125
-154681
237849
-146093
225235
-137938
213247
-130203
201864
-122863
191044
-115897
180763
-109281
170990
-103005
161714
-97057.4
152894
-91406.6
144504
-86041.1
136544
-80962.6
128974
-76137.2
121778
-71557.4
114942
-67215.6
108440
-63090.7
102269
-59187
96395.9
-55473
90816.1
-51957.8
85511.9
-48615.3
80470.3
-45447.4
75676.1
-42438.8
71122.1
-39584.8
66790.6
-36876.7
62667.8
-34299.2
58754.3
-31856.9
55036.3
-29539.3
51493.3
-27329.2
48125.4
-25232.6
44929.2
-23241.8
41887.3
-21340.9
38990.8
-19528.7
36235.2
-17807.8
33620
-16165.9
31131.1
-14591.5
28762.4
-13088.2
26508.8
-11647.3
24363.7
-10262.6
22322.9
-8930.65
20379.7
-7643.25
18529
-6395.92
16766.1
-5181.99
15085.4
-3994.45
13482.1
-2825.63
11951.3
-1667.67
10486
-508.177
9080.62
662.236
7729.35
1860.03
6425.78
3094.08
5155.82
4405.8
3915.51
5757.28
2659.6
7339.05
1413.81
8697.43
10959.2
1.63814e+06
-939933
1.55542e+06
-891754
1.47688e+06
-846209
1.40216e+06
-802843
1.33125e+06
-761724
1.26382e+06
-722578
1.19973e+06
-685388
1.1389e+06
-650126
1.08113e+06
-616540
1.02621e+06
-584681
974085
-554395
924533
-525636
877468
-498301
832740
-472365
790306
-447719
750003
-424374
711705
-402058
675353
-381025
640785
-360951
607985
-341916
576798
-323815
547165
-306668
519062
-290364
492344
-274939
466942
-260171
442899
-246285
419960
-232982
398219
-220411
377577
-208505
357923
-197149
339280
-186401
321566
-176173
304746
-166490
288758
-157277
273571
-148545
259144
-140254
245436
-132385
232417
-124919
220042
-117828
208286
-111107
197112
-104724
186501
-98668.9
176419
-92922.9
166832
-87471.1
157722
-82296.2
149072
-77391.8
140848
-72737.9
133029
-68318.7
125602
-64129.9
118544
-60157.5
111841
-56387.9
105460
-52805.9
99404.1
-49417.3
93640.7
-46194.3
88165.7
-43140.3
82963.9
-40245.5
78017.3
-37492.2
73312.9
-34880.3
68840.5
-32404.3
64594.1
-30052.8
60557.3
-27820.2
56713.1
-25695.1
53064.2
-23680.3
49589.5
-21757.9
46289
-19941.3
43147.9
-18199.8
40165.7
-16546.6
37326.6
-14968.6
34624.3
-13463.6
32057.3
-12024.5
29614.7
-10645.6
27291
-9323.61
25081.2
-8052.81
22977.3
-6826.71
20975.1
-5641.1
19068.7
-4489.53
17253
-3366.2
15522.4
-2263.88
13872.2
-1175.42
12295.1
-90.6095
10787.4
999.515
9342.7
2106.96
7954
3248.73
6613.4
4434.67
5305.64
5713.57
4027.32
7035.59
2728.92
8637.45
1438.31
9988.04
12397.5
1.68443e+06
-850421
1.59947e+06
-806790
1.51862e+06
-765358
1.44186e+06
-726091
1.3689e+06
-688760
1.29961e+06
-653284
1.23377e+06
-619548
1.17121e+06
-587567
1.11178e+06
-557110
1.05529e+06
-528190
1.00169e+06
-500800
950721
-474666
902346
-449926
856419
-426439
812764
-404063
771269
-382879
731926
-362715
694464
-343562
658933
-325419
625154
-308138
593136
-291797
562701
-276233
533747
-261409
506213
-247405
480142
-234100
455330
-221473
431803
-209455
409446
-198055
388179
-187238
367994
-176964
348803
-167210
330587
-157957
313273
-149176
296835
-140839
281206
-132915
266367
-125415
252262
-118280
238862
-111519
226134
-105100
214038
-99011.2
202544
-93229.7
191627
-87751.5
181249
-82545.1
171390
-77612.1
162026
-72932.1
153124
-68490.1
144663
-64276.8
136624
-60279.2
128983
-56489.2
121724
-52898.8
114822
-49485.8
108267
-46251
102030
-43180.8
96106.4
-40270.2
90480.3
-37514.2
85124.8
-34890
80039.8
-32407.3
75204.1
-30044.6
70612.2
-27812.4
66243.5
-25684.2
62086.7
-23663.3
58138.2
-21746.7
54384.5
-19926.6
50823.9
-18197.3
47428.2
-16545.6
44203
-14974.6
41139.1
-13482.6
38225.7
-12055.2
35454.6
-10692.5
32820
-9389.87
30316.1
-8141.69
27934
-6941.52
25668.4
-5787.24
23513.6
-4671.87
21463.4
-3590.95
19512.8
-2538.95
17656.4
-1509.76
15888
-495.499
14202.6
510.039
12595.8
1516.16
11061.4
2533.9
9594.32
3574.05
8185.91
4657.14
6830.22
5790.36
5510.38
7033.4
4223.67
8322.31
2914.97
9946.15
1615.58
11287.4
14013.1
1.72642e+06
-758770
1.63925e+06
-719616
1.55651e+06
-682623
1.47785e+06
-647426
1.40304e+06
-613956
1.33205e+06
-582289
1.26457e+06
-552073
1.20042e+06
-523416
1.13952e+06
-496205
1.08171e+06
-470386
1.02671e+06
-445796
974521
-422477
924971
-400376
877848
-379315
833091
-359307
790567
-340355
750196
-322344
711888
-305254
675445
-288977
640859
-273551
608003
-258941
576731
-244962
547145
-231823
518957
-219217
492226
-207368
466781
-196029
442634
-185308
419694
-175114
397896
-165440
377197
-156265
357538
-147551
338859
-139278
321106
-131423
304240
-123972
288225
-116900
273004
-110195
258546
-103822
244811
-97783.6
231757
-92045.7
219352
-86606.6
207572
-81449.6
196373
-76553.1
185734
-71905.5
175624
-67502.4
166017
-63325.4
156886
-59358.6
148210
-55601.4
139970
-52039.1
132139
-48657.8
124692
-45452.1
117615
-42408.1
110893
-39528.9
104500
-36788
98431.1
-34201.6
92653.3
-31736.4
87170.8
-29407.5
81951.4
-27187.9
76997
-25090.2
72285.4
-23100.8
67803.3
-21202
63549
-19409
59507
-17704.7
55659.5
-16079
52000
-14537.8
48528.2
-13073.8
45225.5
-11671.9
42083
-10340.2
39097.8
-9070.02
36259.3
-7854.06
33560.9
-6691.45
30994.2
-5574.94
28554.3
-4501.64
26234.1
-3467.06
24028
-2465.78
21929.4
-1492.31
19932.9
-542.484
18032.6
390.514
16223.6
1313.57
14499.8
2233.83
12856.4
3159.53
11288
4102.31
9788.23
5073.82
8350.07
6095.3
6966.01
7174.43
5618.96
8380.45
4306.72
9634.55
2965.12
11287.7
1636.84
12615.7
15649.9
1.76379e+06
-665152
1.67482e+06
-630644
1.59022e+06
-598027
1.50987e+06
-567077
1.43357e+06
-537652
1.36098e+06
-509699
1.29205e+06
-483149
1.22658e+06
-457941
1.16438e+06
-434012
1.10525e+06
-411256
1.04913e+06
-389671
995834
-369182
945119
-349661
897013
-331208
851302
-313596
807883
-296937
766675
-281136
727444
-266023
690252
-251784
654902
-238201
621291
-225330
589446
-213117
559103
-201480
530380
-190494
502986
-179975
477024
-170066
452343
-160627
428901
-151672
406638
-143177
385484
-135111
365384
-127451
346284
-120178
328151
-113290
310922
-106743
294552
-100530
278990
-94633.2
264210
-89041.7
250164
-83738.1
236824
-78706
224153
-73934.8
212104
-69400.8
200658
-65107.1
189783
-61030.4
179449
-57169.1
169627
-53503.2
160302
-50033.2
151432
-46731.3
143004
-43611
134996
-40649.8
127387
-37843.4
120154
-35174.6
113276
-32651.2
106751
-30263.3
100538
-27988
94638.3
-25837.1
89028.1
-23797.4
83699.5
-21859.4
78632.3
-20022.9
73814.2
-18282.7
69242
-16629.9
64889.4
-15056.3
60753.2
-13568.6
56821.1
-12146.9
53086.7
-10803.5
49529.2
-9516.3
46154.1
-8296.79
42944.6