/*--------------------------------*- C++ -*----------------------------------*\
  =========                 |
  \\      /  F ield         | OpenFOAM: The Open Source CFD Toolbox
   \\    /   O peration     | Website:  https://openfoam.org
    \\  /    A nd           | Version:  11
     \\/     M anipulation  |
\*---------------------------------------------------------------------------*/
FoamFile
{
    format      ascii;
    class       surfaceScalarField;
    location    "500";
    object      phi;
}
// * * * * * * * * * * * * * * * * * * * * * * * * * * * * * * * * * * * * * //

dimensions      [0 3 -1 0 0 0 0];

internalField   nonuniform List<scalar> 
62845
(
424150
-1.89529e+06
1.90549e+06
398399
-1.80344e+06
1.82919e+06
381068
-1.71273e+06
1.73006e+06
361394
-1.62644e+06
1.64612e+06
343752
-1.54434e+06
1.56199e+06
326279
-1.46631e+06
1.48378e+06
310039
-1.39193e+06
1.40817e+06
294423
-1.32123e+06
1.33684e+06
279625
-1.25399e+06
1.26879e+06
265525
-1.19011e+06
1.20421e+06
252182
-1.12943e+06
1.14277e+06
239537
-1.07177e+06
1.08442e+06
227437
-1.01693e+06
1.02903e+06
216059
-964967
976346
205134
-915469
926394
194896
-868592
878829
185077
-823930
833750
175761
-781636
790951
166983
-741453
750231
158628
-703230
711585
150632
-666966
674961
143132
-632605
640106
135964
-599846
607013
129168
-568837
575633
122731
-539374
545812
116592
-511356
517495
110791
-484829
490630
105269
-459593
465115
100065
-435693
440897
95021.1
-412879
417923
90328.4
-391348
396041
85829.4
-370849
375348
81565.2
-351428
355693
77529.2
-332937
336973
73665.3
-315422
319286
70015.7
-298781
302431
66524.5
-283012
286503
63235.5
-268017
271306
60093.8
-253786
256927
57103.8
-240288
243278
54260.2
-227478
230322
51558.4
-215320
218022
48984.1
-203776
206351
46537.8
-192826
195273
44205.8
-182429
184761
41988.9
-172563
174780
39869.3
-163198
165318
37857.6
-154317
156329
35936.6
-145880
147801
34107.9
-137880
139709
32363.8
-130282
132026
30701.4
-123074
124736
29109.3
-116227
117819
27598.4
-109738
111249
26152.9
-103572
105018
24770.4
-97715.3
99097.8
23453.5
-92164.1
93481
22191.2
-86889.4
88151.7
20990.3
-81880.4
83081.2
19840.4
-77125.9
78275.9
18739.7
-72610.6
73711.4
17686.4
-68319.2
69372.5
16679.1
-64245.3
65252.6
15716.1
-60373.6
61336.6
14791.8
-56693.6
57617.8
13909
-53194.5
54077.4
13058
-49865.9
50716.9
12241.7
-46701.2
47517.6
11462.6
-43693.8
44473
10711.5
-40821.6
41572.6
9987.37
-38089.7
38813.9
9292.62
-35483.9
36178.7
8625.94
-33001.2
33667.9
7978.88
-30624.1
31271.1
7357.2
-28353
28974.7
6753.39
-26179.9
26783.7
6169.57
-24094.3
24678.1
5603.01
-22091
22657.6
5051.94
-20161.3
20712.3
4514.47
-18298.2
18835.6
3988.86
-16493.6
17019.2
3473.19
-14739.4
15255.1
2965.83
-13027
13534.4
2464.49
-11348.3
11849.6
1967.6
-9692.79
10189.7
1475.26
-8056.42
8548.75
985.106
-6423.72
6913.88
516.106
-4827.88
5296.88
-3160.62
3676.72
515345
-1.87197e+06
489515
-1.77761e+06
465438
-1.68865e+06
442295
-1.6033e+06
420184
-1.52223e+06
399033
-1.44516e+06
378978
-1.37187e+06
359881
-1.30213e+06
341713
-1.23582e+06
324495
-1.17289e+06
308112
-1.11305e+06
292542
-1.0562e+06
277819
-1.00221e+06
263770
-950918
250480
-902179
237829
-855941
225852
-811953
214430
-770214
203599
-730622
193344
-692976
183651
-657272
174356
-623310
165597
-591087
157210
-560451
149285
-531449
141811
-503882
134677
-477695
127872
-452788
121388
-429209
115316
-406807
109545
-385578
104020
-365324
98733.8
-346142
93774.8
-327978
89039
-310686
84568.3
-294310
80308.4
-278752
76251.9
-263960
72378.9
-249913
68717.5
-236627
65229.6
-223990
61914.9
-212005
58762.7
-200624
55760.7
-189824
52902.9
-179571
50186.6
-169847
47602.8
-160615
45138.7
-151853
42795.5
-143537
40560.5
-135645
38435.6
-128157
36408.5
-121047
34481.1
-114300
32637.1
-107894
30878.7
-101814
29208
-96044.6
27609.3
-90565.3
26084.8
-85365
24628.5
-80424
23238
-75735.5
21911.8
-71284.4
20643.7
-67051.1
19436.2
-63037.8
18275.1
-59212.5
17167.1
-55585.6
16110.7
-52138.1
15100.2
-48855.4
14130.2
-45731.3
13199.4
-42763.1
12306.5
-39928.7
11453.8
-37237
10636.2
-34666.2
9844.88
-32209.9
9086
-29865.2
8357.98
-27625
7654.9
-25476.8
6975.71
-23415.1
6318.95
-21434.3
5682.44
-19524.8
5064.26
-17680
4462.34
-15891.7
3874.59
-14151.6
3298.63
-12451.1
2732.61
-10782.3
2174.2
-9134.37
1622.82
-7505.04
1077.85
-5878.75
549.919
-4299.95
-2610.7
608311
-1.84084e+06
578253
-1.74755e+06
549353
-1.65975e+06
521851
-1.5758e+06
495686
-1.49607e+06
470721
-1.42019e+06
446963
-1.34812e+06
424400
-1.27957e+06
402963
-1.21438e+06
382578
-1.1525e+06
363233
-1.0937e+06
344856
-1.03783e+06
327429
-984783
310830
-934319
295091
-886440
280145
-840995
265975
-797782
252564
-756803
239746
-717804
227606
-680835
216028
-645695
205102
-612384
194714
-580698
184899
-550636
175498
-522048
166598
-494982
158140
-469237
150162
-444811
142558
-421604
135315
-399564
128378
-378640
121884
-358830
115728
-339986
109805
-322055
104254
-305135
98919.7
-288976
93847.7
-273680
89038.8
-259151
84503.3
-245377
80163.3
-232287
76045.4
-219873
72125.8
-208085
68396.4
-196895
64855.8
-186284
61486.2
-176202
58279.1
-166640
55230.3
-157566
52326.4
-148949
49563.6
-140774
46930.5
-133012
44422.9
-125649
42038.4
-118662
39764.6
-112026
37603.6
-105733
35539.1
-99749.6
33573.4
-94078.8
31703.8
-88695.7
29915.1
-83576.3
28213.6
-78722.5
26593.3
-74115.2
25039
-69730.1
23561.8
-65573.9
22147.1
-61623.1
20805.9
-57871.2
19519.6
-54299.3
18286.9
-50905.4
17110.2
-47678.7
15987.8
-44608.9
14910.5
-41685.8
13884.4
-38902.6
12900.5
-36253.1
11953.6
-33719.3
11049.6
-31306
10183.4
-28999
9346.89
-26788.4
8543.46
-24673.4
7770.89
-22642.6
7025.25
-20688.7
6304.93
-18804.4
5607.84
-16982.9
4930.98
-15214.8
4272.4
-13493.1
3629.47
-11808.2
2999.86
-10152.7
2381.19
-8515.7
1771.92
-6895.77
1173.08
-5279.91
587.772
-3714.64
-2022.92
700417
-1.80397e+06
665400
-1.71254e+06
631935
-1.62629e+06
600184
-1.54405e+06
569866
-1.46575e+06
541134
-1.39146e+06
513810
-1.32079e+06
487788
-1.25355e+06
463146
-1.18974e+06
439678
-1.12903e+06
417391
-1.07142e+06
396277
-1.01671e+06
376114
-964620
357085
-915290
338968
-868323
321795
-823823
305449
-781436
289914
-741268
275223
-703113
261262
-666874
247966
-632399
235371
-599789
223414
-568741
212033
-539255
201267
-511282
191003
-484718
181281
-459515
172041
-435571
163274
-412837
154919
-391209
147020
-370741
139518
-351328
132353
-332821
125571
-315272
119111
-298676
113019
-282884
107188
-267849
101664
-253627
96408.7
-240122
91421.1
-227299
86673.8
-215125
82160.4
-203572
77875.9
-192610
73792.6
-182200
69916.7
-172326
66231.3
-162955
62720
-154054
59384.2
-145613
56206.6
-137596
53186.6
-129992
50313.9
-122777
47574
-115923
44970.6
-109422
42485.9
-103248
40126.8
-97390.5
37872.7
-91824.7
35725.7
-86548.7
33687.7
-81538.3
31739.1
-76774
29881.9
-72258
28118.7
-67966.8
26430
-63885.3
24822.8
-60015.8
23282.2
-56330.7
21819.6
-52836.6
20424.3
-49510.1
19090.8
-46345.2
17813.8
-43331.9
16599.1
-40471.1
15433.9
-37737.4
14320.1
-35139.4
13256.6
-32655.8
12234.1
-30283.5
11255
-28019.9
10319.8
-25853.3
9420.57
-23774.1
8555.71
-21777.7
7723.6
-19856.5
6921.53
-18002.4
6146.75
-16208.1
5397.24
-14465.3
4669.52
-12765.3
3961.59
-11100.2
3270.14
-9461.22
2592.62
-7838.19
1927.18
-6230.33
1274.11
-4626.84
629.301
-3069.83
-1393.62
790489
-1.76194e+06
750748
-1.6728e+06
712845
-1.58838e+06
676869
-1.50807e+06
642738
-1.43162e+06
610193
-1.35891e+06
579282
-1.28988e+06
549986
-1.22425e+06
522122
-1.16188e+06
495673
-1.10258e+06
470574
-1.04632e+06
446645
-992783
424016
-941991
402477
-893750
382047
-847892
362616
-804393
344211
-763032
326718
-723774
310070
-686465
294302
-651107
279350
-617447
265099
-585538
251587
-555229
238801
-526470
226629
-499109
215060
-473149
204084
-448539
193641
-425128
183719
-402916
174312
-381802
165409
-361838
156853
-342772
148836
-324805
141199
-307635
133889
-291365
126946
-275941
120413
-261316
114170
-247384
108243
-234195
102605
-221661
97245.7
-209766
92157
-198483
87317.6
-187771
82718.5
-177601
78341.3
-167949
74181.1
-158795
70225.8
-150099
66461.1
-141849
62882.7
-134018
59479.6
-126589
56237.6
-119535
53155
-112840
50217.8
-106485
47428.9
-100459
44767.1
-94728.7
42239.1
-89296.7
39828.7
-84138.3
37529.1
-79238.7
35346.6
-74591.5
33261.8
-70173.2
31276.7
-65981.7
29385.1
-61993.6
27580.6
-58211.3
25861.4
-54611.6
24221.4
-51196.6
22654.8
-47943.5
21163.9
-44854.3
19742.8
-41910.7
18378
-39106.3
17079.6
-36439
15838.4
-33898.2
14648.7
-31466.1
13516.6
-29151.4
12429.3
-26932.7
11387.4
-24811.4
10388.3
-22775
9429.73
-20819.1
8507.75
-18934.6
7620.69
-17115.3
6765.03
-15352.5
5937.74
-13638
5136.2
-11963.8
4357.07
-10321.1
3597.19
-8701.34
2853.2
-7094.2
2122.25
-5499.37
1403.48
-3908.07
685.162
-2351.51
-708.462
878355
-1.71514e+06
833994
-1.62844e+06
791868
-1.54626e+06
751793
-1.468e+06
713773
-1.3936e+06
677653
-1.32279e+06
643335
-1.25556e+06
610737
-1.19165e+06
579727
-1.13087e+06
550327
-1.07319e+06
522387
-1.01838e+06
495919
-966316
470698
-916771
446812
-869864
424099
-825179
402522
-782816
382021
-742531
362592
-704345
344149
-668022
326589
-633547
309944
-600802
294151
-569745
279147
-540224
264867
-512190
251302
-485545
238490
-460337
226221
-436269
214632
-413539
203617
-391900
193215
-371400
183217
-351840
173866
-333421
164853
-315792
156322
-299104
148265
-283307
140576
-268253
133248
-253988
126329
-240466
119731
-227596
113468
-215397
107518
-203817
101858
-192823
96477.2
-182390
91366.8
-172491
86507.9
-163090
81882.8
-154169
77491.2
-145707
73314.4
-137672
69341.5
-130045
65558
-122805
61963.9
-115941
58544.7
-109421
55287.7
-103228
52189.3
-97360.9
49245.9
-91785.2
46438
-86488.9
43766.9
-81467.2
41226.2
-76697.9
38804.3
-72169.6
36498.9
-67867.8
34299
-63781.8
32211.5
-59906.1
30216.8
-56216.6
28321.6
-52716.4
26507.1
-49382.1
24784
-46220.4
23134.1
-43204.4
21563.6
-40340.2
20066.9
-37609.6
18638.1
-35010.2
17268.1
-32528.1
15966.4
-30164.4
14720
-27905
13527.4
-25740
12383.8
-23667.8
11289.8
-21681
10240.8
-19770.1
9233.82
-17927.6
8265.53
-16147
7332.88
-14419.8
6432.64
-12737.8
5561.46
-11092.6
4715.94
-9475.58
3892.11
-7877.51
3086.18
-6288.26
2294.82
-4708.02
1510.66
-3123.91
706.092
-1546.94
-2.36741
963686
-1.66383e+06
914906
-1.57966e+06
868583
-1.49993e+06
824666
-1.42408e+06
782840
-1.35177e+06
743206
-1.28316e+06
705510
-1.21787e+06
669732
-1.15587e+06
635805
-1.09694e+06
603495
-1.04088e+06
572875
-987756
543733
-937174
516105
-889142
489851
-843610
464956
-800284
441258
-759118
418794
-720067
397423
-682974
377167
-647766
357927
-614307
339705
-582581
322331
-552371
305846
-523738
290186
-496530
275339
-470698
261195
-446193
247791
-422865
235070
-400818
222969
-379800
211481
-359912
200598
-340957
190209
-323032
180360
-305942
171040
-289785
162145
-274412
153715
-259824
145703
-245976
138071
-232834
130837
-220362
123963
-208523
117427
-197281
111215
-186610
105314
-176490
99702.5
-166879
94367.4
-157755
89299.5
-149101
84476.3
-140884
79893.3
-133089
75532.9
-125685
71390.5
-118663
67445.8
-111996
63699.8
-105675
60134.1
-99662.3
56742.2
-93969
53512.3
-88555.3
50441.5
-83418.2
47518.2
-78543.8
44734.8
-73914.6
42085.1
-69520
39566.8
-65349.5
37168.2
-61383.3
34879.1
-57616.9
32701.5
-54039.1
30629.2
-50644
28655.9
-47408.9
26767.2
-44331.7
24977.8
-41415
23265.3
-38627.7
21636.1
-35980.4
20076.5
-33450.6
18596.4
-31048
17175
-28743.1
15821.8
-26551.8
14527.3
-24445.4
13291.6
-22432.1
12108.5
-20497.9
10974.6
-18636.3
9888.25
-16841.2
8844.52
-15103.3
7841.12
-13416.4
6874.19
-11770.9
5940.23
-10158.7
5035.15
-8570.5
4155.24
-6997.6
3295.36
-5428.38
2451.8
-3864.46
1611.29
-2283.41
768.705
-704.351
766.334
1.04634e+06
-1.60812e+06
993389
-1.5267e+06
943086
-1.44963e+06
895263
-1.37626e+06
849919
-1.30643e+06
806835
-1.24007e+06
765901
-1.17693e+06
727029
-1.117e+06
690110
-1.06002e+06
655054
-1.00582e+06
621751
-954453
590164
-905586
560174
-859152
531620
-815056
504523
-773187
478874
-733469
454447
-695639
431283
-659810
409251
-625733
388356
-593412
368468
-562692
349631
-533534
331733
-505841
314701
-479498
298584
-454581
283217
-430826
268691
-408339
254844
-386971
241717
-366673
229252
-347447
217390
-329095
206123
-311765
195443
-295262
185292
-279634
175615
-264735
166454
-250662
157747
-237269
149475
-224562
141612
-212499
134137
-201049
127039
-190183
120292
-179864
113883
-170080
107784
-160781
101996
-151966
96490.2
-143596
91253
-135647
86275.8
-128112
81550
-120959
77049.6
-114162
72775.5
-107722
68698.9
-101598
64833.7
-95797.1
61152
-90287.3
57652.1
-85055.4
54325.4
-80091.4
51155.4
-75373.8
48141.2
-70900.4
45270.9
-66649.7
42541.4
-62620
39942.6
-58784.4
37466.8
-55141.2
35112.8
-51685.1
32869.6
-48400.9
30730.9
-45270.2
28699.3
-42300.1
26759.9
-39475.6
24915.2
-36783.1
23151.5
-34216.6
21478.4
-31777.6
19874.9
-29444.4
18350.3
-27218.5
16892.2
-25093.7
15503.1
-23056.3
14174.6
-21103.6
12904.6
-19227.8
11690
-17421.7
10526
-15677.1
9410.89
-13988.2
8339.29
-12344.8
7308.89
-10740.5
6315.11
-9164.86
5353.71
-7609.11
4420.3
-6064.19
3509.91
-4517.99
2617.08
-2971.63
1725.91
-1392.24
874.672
146.888
1641.01
1.12601e+06
-1.54812e+06
1.06905e+06
-1.46974e+06
1.01492e+06
-1.3955e+06
963519
-1.32486e+06
914718
-1.25763e+06
868283
-1.19364e+06
824294
-1.13295e+06
782425
-1.07513e+06
742679
-1.02027e+06
705021
-968161
669133
-918566
635125
-871578
602813
-826840
572130
-784373
543001
-744058
515315
-705784
489050
-669374
464088
-634848
440419
-602065
417869
-570862
396529
-541353
376190
-513195
356928
-486579
338645
-461215
321220
-437157
304739
-414345
289048
-392649
274185
-372108
259992
-352480
246557
-334013
233824
-316361
221685
-299626
210131
-283708
199205
-268709
188850
-254379
178951
-240764
169572
-227889
160660
-215650
152196
-204034
144149
-193002
136505
-182540
129243
-172602
122335
-163171
115777
-154223
109538
-145727
103607
-137665
97977.2
-130017
92619.5
-122754
87526.3
-115866
82687.1
-109323
78083.1
-103118
73708.9
-97223.9
69543.5
-91631.8
65587.1
-86330.9
61820.9
-81289.2
58234.9
-76505.4
54830.5
-71969.4
51590.1
-67660
48507.1
-63566.7
45571.6
-59684.5
42780.3
-55993.1
40122.6
-52483.5
37591.7
-49154.1
35181.1
-45990.2
32893.1
-42982.2
30708.8
-40115.8
28626.7
-37393.4
26644.5
-34800.9
24760
-32332.2
22959.8
-29977.4
21245.8
-27730.4
19612.3
-25585
18049.8
-23531.3
16560.7
-21567.2
15139.3
-19682.1
13780.6
-17869.2
12481.5
-16122.6
11238.2
-14433.8
10046.1
-12796.2
8902.68
-11201.3
7802.71
-9640.51
6742.46
-8104.61
5717.27
-6583.91
4722.19
-5069.11
3751.52
-3547.32
2798.04
-2018.15
1847.65
-441.849
940.131
1054.41
2581.14
1.20275e+06
-1.48408e+06
1.14192e+06
-1.40892e+06
1.08412e+06
-1.33769e+06
1.02917e+06
-1.26991e+06
977012
-1.20547e+06
927471
-1.1441e+06
880408
-1.08588e+06
835752
-1.03048e+06
793289
-977812
752975
-927846
714755
-880347
678345
-835168
643831
-792326
611086
-751628
579950
-712921
550339
-676173
522304
-641339
495618
-608162
470315
-576762
446285
-546832
423410
-518478
401725
-491510
381128
-465982
361544
-441631
343015
-418628
325338
-396668
308594
-375905
292626
-356140
277572
-337426
263178
-319618
249532
-302716
236578
-286671
224307
-271437
212564
-256965
201441
-243257
190930
-230252
180902
-217862
171381
-206129
162327
-194981
153728
-184403
145556
-174368
137792
-164837
130415
-155795
123405
-147213
116741
-139063
110411
-131335
104390
-123996
98666.9
-117031
93225.4
-110424
88056.3
-104154
83138.1
-98199.7
78461
-92546.8
74020.4
-87191.2
69791.8
-82102.3
65769.6
-77266.9
61949.5
-72685.4
58315.9
-68335.8
54851.9
-64196
51566.6
-60281.4
48431.2
-56549
45451.1
-53013.1
42622.9
-49655.3
39926.8
-46458
37356.3
-43419.7
34913.2
-40539.2
32588
-37790.6
30373.9
-35179.3
28265
-32692
26255.2
-30322.4
24338.7
-28060.9
22513.8
-25905.4
20774.4
-23845.6
19118.4
-21875.3
17536.7
-19985.5
16026.9
-18172.4
14585.5
-16427.7
13207.3
-14744.5
11889.5
-13116
10627.3
-11534
9416.36
-9990.37
8252.77
-8476.92
7132.03
-6983.87
6049.03
-5500.91
4998.3
-4018.38
3973.06
-2522.08
2966.54
-1011.63
1965.35
559.337
998.142
2021.62
3579.28
1.27616e+06
-1.4162e+06
1.21167e+06
-1.34443e+06
1.15033e+06
-1.27635e+06
1.09209e+06
-1.21167e+06
1.03672e+06
-1.1501e+06
984150
-1.09153e+06
934204
-1.03594e+06
886753
-983026
841783
-932842
798964
-885026
758322
-839705
719784
-796630
683136
-755678
648297
-716789
615265
-679889
583915
-644823
554120
-611544
525821
-579863
498908
-549849
473407
-521331
449166
-494237
426159
-468503
404220
-444042
383506
-420917
363742
-398863
345026
-377952
327235
-358114
310365
-339270
294268
-321329
279021
-304371
264521
-288216
250760
-272911
237730
-258407
225325
-244560
213533
-231465
202309
-219029
191665
-207217
181552
-196015
171942
-185372
162818
-175279
154140
-165690
145900
-156598
138063
-147957
130618
-139768
123547
-131992
116825
-124614
110435
-117606
104362
-110958
98590.5
-104653
93100
-98663.8
87884.2
-92984
82926.2
-87588.7
78211.3
-82476.3
73724.7
-77615.7
69462.2
-73004.3
65407.7
-68631
61549.1
-64477.1
57890.6
-60537.6
54397.7
-56788.4
51082.5
-53233.8
47924.8
-49855.4
44920.3
-46650.8
42066.5
-43604.1
39353.3
-40706.5
36759.6
-37945.5
34301.2
-35332.2
31959.3
-32837.5
29727.8
-30460.5
27601
-28195.6
25580.5
-26040.4
23656.3
-23981.3
21823
-22012.3
20071.3
-20123.5
18404.1
-18318.3
16813.5
-16581.8
15296
-14910.3
13846.8
-13295.3
12462
-11731.1
11136.8
-10208.9
9867.49
-8721.07
8649.57
-7259
7477.63
-5811.93
6346.92
-4370.2
5251.72
-2923.17
4183.42
-1453.79
3134.55
37.2447
2095.96
1597.93
1082.48
3035.1
4661.75
1.34619e+06
-1.34455e+06
1.27813e+06
-1.27637e+06
1.21349e+06
-1.21171e+06
1.15204e+06
-1.15021e+06
1.09363e+06
-1.0917e+06
1.03823e+06
-1.03612e+06
985525
-983232
935514
-933014
887962
-885290
842854
-839918
799969
-796821
759285
-755946
720625
-717018
683928
-680092
649062
-645023
615923
-611684
584443
-580065
554607
-550027
526238
-521479
499291
-494384
473677
-468622
449409
-444235
426362
-420996
404426
-398981
383586
-378022
363831
-358197
345061
-339344
327158
-321367
310267
-304438
294175
-288279
278878
-272919
264368
-258400
250537
-244577
237448
-231471
225000
-219017
213171
-207200
201941
-195988
191265
-185339
181121
-175227
171486
-165644
162329
-156532
153626
-147895
145367
-139699
137511
-131911
130040
-124522
122945
-117518
116203
-110864
109794
-104549
103704
-98563.2
97916.2
-92875.6
92407.1
-87474.8
87177.4
-82359
82202.7
-77501.6
77473
-72886.1
72980.1
-68511.5
68707.2
-64358
64641.5
-60411.4
60773
-56669.1
57098.2
-53113.6
53605.5
-49741.1
50283.9
-46533.8
47119.8
-43486.7
44110.6
-40595
41245.2
-37841.1
38528.8
-35229.1
35935.8
-32739.1
33467.6
-30369.3
31123.8
-28116.7
28893.5
-25965.2
26766.8
-23913.7
24741.9
-21956.4
22814.4
-20084.8
20980.8
-18289.9
19232.1
-16569.6
17565.7
-14915.4
15975.9
-13320.5
14459.5
-11778.9
13011.7
-10283.3
11628.1
-8825.23
10304.2
-7397.19
9034.99
-5989.82
7816.67
-4593.6
6642.8
-3196.34
5507.47
-1787.84
4398.77
-345.088
3316.42
1119.59
2242.35
2672
1187.68
4089.77
5849.44
1.41266e+06
-1.26949e+06
1.3413e+06
-1.20502e+06
1.27341e+06
-1.14382e+06
1.20898e+06
-1.08578e+06
1.14774e+06
-1.03046e+06
1.08956e+06
-977943
1.03428e+06
-927957
981835
-880564
931933
-835388
884614
-792600
839652
-751858
796876
-713171
756331
-676472
717830
-641592
681220
-608413
646513
-576976
613511
-547063
582147
-518663
552345
-491678
524098
-466137
497252
-441775
471723
-418707
447519
-396791
424513
-375976
402655
-356164
381886
-337428
362188
-319646
343502
-302681
325677
-286614
308747
-271349
292762
-256934
277508
-243146
263010
-230079
249246
-217707
236176
-205946
223762
-194786
211966
-184192
200754
-174127
190114
-164588
179990
-155520
170382
-146925
161248
-138761
152565
-131017
144318
-123664
136486
-116690
129035
-110067
121955
-103784
115229
-97823.3
108831
-92165.4
102750
-86794.3
96975.2
-81700
91485.9
-76869.7
86263.6
-72279.4
81299.1
-67921.5
76579.9
-63792.3
72094.3
-59872.4
67827.4
-56144.6
63773.5
-52615.1
59915.3
-49255.4
56243.9
-46069.7
52753.2
-43043
49438.3
-40171.9
46280.5
-37437.2
43277.2
-34837.8
40420
-32371.9
37704.3
-30023.4
35120.5
-27785.5
32659.7
-25655.9
30317.4
-23622.9
28087.4
-21683.7
25963.8
-19832.8
23943
-18064.1
22017.7
-16364.6
20182.9
-14734.7
18434.1
-13166.7
16766.6
-11652.9
15175.5
-10187.9
13655.6
-8763.32
12203
-7372.65
10812.7
-6006.87
9479.53
-4656.7
8198.15
-3312.23
6962.49
-1960.68
5765.04
-590.394
4593.37
826.583
3447.27
2265.7
2299.35
3819.93
1170.77
5218.35
7020.2
1.47533e+06
-1.19104e+06
1.40082e+06
-1.1305e+06
1.33002e+06
-1.07302e+06
1.26268e+06
-1.01845e+06
1.19873e+06
-966507
1.13798e+06
-917194
1.08031e+06
-870286
1.02545e+06
-825703
973425
-783367
923922
-743097
876959
-704895
832389
-668601
790012
-634095
749733
-601313
711528
-570208
675184
-540632
640720
-512599
607991
-485933
576920
-460607
547346
-436564
519312
-413742
492657
-392051
467348
-371482
443298
-351926
420491
-333357
398801
-315738
378134
-298979
358591
-283138
340037
-268060
322380
-253692
305560
-240114
289647
-227234
274531
-214963
260157
-203332
246501
-192291
233526
-181810
221198
-171864
209489
-162418
198359
-153457
187787
-144949
177740
-136878
168199
-129219
159129
-121947
150511
-115046
142317
-108495
134539
-102289
127143
-96388.1
120113
-90792.6
113428
-85481.3
107082
-80447.8
101048
-75666.1
95308.3
-71130
89854.7
-66825.8
84675.5
-62742.3
79749.8
-58866.5
75059.1
-55181.7
70607.9
-51693.4
66368.6
-48375.8
62344.3
-45231.2
58517.7
-42243.1
54876.6
-39401.9
51410.1
-36705.4
48118
-34145.2
44990.2
-31709.9
42009.3
-29391
39175.4
-27189.5
36479.7
-25089.8
33914.2
-23090.4
31476.1
-21184.8
29155.2
-19362.8
26946.9
-17624.5
24841.8
-15959
22838.7
-14361.4
20931.5
-12827.6
19114.4
-11349.6
17382.6
-9921.08
15730.9
-8536.18
14155.5
-7187.89
12650.3
-5867.44
11211
-4567.59
9832.64
-3278.36
8509.45
-1989.03
7234.02
-685.255
5998.9
644.725
4797.53
2027.95
3621.77
3441.46
2438.66
5003.04
1270.56
6386.44
8290.77
1.53416e+06
-1.10959e+06
1.45663e+06
-1.05297e+06
1.38302e+06
-999407
1.31303e+06
-948460
1.24655e+06
-900029
1.1834e+06
-854039
1.12341e+06
-810297
1.06641e+06
-768706
1.01224e+06
-729195
960821
-691678
911994
-656067
865573
-622180
821500
-590022
779665
-559477
739890
-530432
702158
-502901
666266
-476707
632188
-451855
599865
-428284
569135
-405834
539923
-384530
512228
-364356
485897
-345151
460905
-326934
437142
-309594
414557
-293152
393190
-277613
372825
-262772
353459
-248694
335092
-235325
317674
-222696
301081
-210641
285338
-199220
270377
-188371
256167
-178081
242670
-168313
229843
-159036
217656
-150232
206081
-141882
195082
-133949
184635
-126431
174700
-119285
165267
-112513
156297
-106076
147780
-99978.9
139682
-94191.2
131985
-88691.3
124676
-83483.3
117732
-78537.1
111126
-73841.5
104849
-69389.7
98880.3
-65161.1
93209.4
-61154.9
87819.2
-57352.1
82692
-53739.3
77824.2
-50313.9
73193.6
-47062.8
68791
-43973.2
64606.7
-41046.9
60628.4
-38264.8
56843.8
-35617.3
53246.3
-33107.9
49827.4
-30726.3
46575.5
-28458
43482.9
-26298.5
40539.8
-24246.4
37741.6
-22291.6
35083.8
-20432.5
32551.5
-18652.6
30143
-16954.3
27851.4
-15332.9
25671.4
-13779
23597.5
-12287.5
21622.9
-10853
19742.7
-9469.38
17952.4
-8130.8
16246.3
-6830.12
14619.6
-5561.2
13067.7
-4315.47
11585.4
-3085.34
10167.4
-1860.33
8807.62
-629.274
7498.69
623.68
6236.62
1906.79
5009.68
3254.89
3812.15
4638.99
2603.64
6211.55
1406.47
7583.6
9697.24
1.58884e+06
-1.02511e+06
1.50867e+06
-972797
1.43241e+06
-923147
1.35999e+06
-876038
1.29114e+06
-831180
1.22571e+06
-788615
1.16358e+06
-748161
1.10457e+06
-709702
1.04848e+06
-673104
995267
-638463
944628
-605429
896595
-574147
850947
-544374
807616
-516147
766434
-489250
727348
-463815
690173
-439532
654909
-416591
621394
-394769
589560
-374000
559347
-354317
530637
-335646
503328
-317842
477453
-301059
452859
-285001
429488
-269781
407271
-255396
386150
-241651
366123
-228667
347140
-216343
329047
-204602
311870
-193464
295555
-182904
280059
-172875
265336
-163358
251345
-154322
238056
-145748
225431
-137607
213433
-129884
202039
-122556
191209
-115601
180920
-108995
171138
-102730
161854
-96792.5
153026
-91150.9
144629
-85794.2
136662
-80724.1
129086
-75906.8
121883
-71334.5
115042
-66999.9
108534
-62881.9
102357
-58984.7
96479.2
-55276.9
90894.6
-51767.6
85585.9
-48430.6
80540
-45268
75741.8
-42264.5
71183.9
-39415.3
66848.7
-36711.8
62722.6
-34138.7
58805.8
-31700.5
55084.7
-29386.8
51538.7
-27180.4
48168
-25087.3
44969.2
-23099.7
41924.8
-21202
39026
-19392.7
36268.1
-17674.6
33650.8
-16035.3
31159.8
-14463.3
28789.2
-12962.3
26533.7
-11523.5
24386.9
-10140.7
22344.4
-8810.46
20399.6
-7524.6
18547.4
-6278.6
16783.1
-5065.78
15101
-3879.13
13496.4
-2710.91
11964.3
-1553.26
10497.6
-393.63
9091.09
777.286
7738.79
1975.98
6434.07
3211.51
5162.98
4525.98
3921.46
5880.5
2663.9
7469.11
1416.41
8831.09
11113.7
1.63948e+06
-938098
1.55669e+06
-890006
1.47809e+06
-844543
1.4033e+06
-801256
1.33234e+06
-760212
1.26486e+06
-721137
1.20071e+06
-684015
1.13983e+06
-648818
1.08202e+06
-615293
1.02705e+06
-583492
974880
-553261
925288
-524555
878184
-497270
833419
-471382
790950
-446781
750613
-423479
712284
-401203
675902
-380209
641305
-360172
608478
-341172
577265
-323104
547608
-305990
519482
-289715
492742
-274319
467319
-259578
443256
-245718
420299
-232439
398539
-219892
377880
-208008
358210
-196672
339552
-185945
321823
-175735
304989
-166070
288988
-156874
273789
-148158
259350
-139883
245631
-132028
232601
-124577
220216
-117499
208451
-110790
197268
-104419
186648
-98375.3
176557
-92640
166963
-87198.4
157846
-82033.2
149189
-77138
140958
-72492.9
133133
-68082
125700
-63901.1
118636
-59936.3
111928
-56173.8
105542
-52598.6
99481.8
-49216.5
93713.8
-45999.6
88234.6
-42951.4
83028.7
-40062.2
78078.4
-37314.1
73370.3
-34707.2
68894.5
-32236
64644.8
-29889
60605
-27660.6
56757.9
-25539.6
53106.1
-23528.6
49628.8
-21609.9
46325.9
-19796.8
43182.4
-18058.5
40198
-16408.4
37356.7
-14833.3
34652.4
-13331
32083.5
-11894.4
29639.1
-10517.9
27313.7
-9198.06
25102.2
-7929.25
22996.7
-6704.96
20993.1
-5520.95
19085.3
-4370.79
17268.1
-3248.63
15536.3
-2147.28
13884.8
-1059.43
12306.5
25.0257
10797.7
1115.21
9351.97
2222.99
7962.2
3365.76
6620.52
4553.19
5311.66
5834.84
4032.29
7159.87
2732.41
8768.99
1440.18
10123.3
12553.8
1.68568e+06
-848519
1.60066e+06
-804979
1.51975e+06
-763632
1.44294e+06
-724447
1.36992e+06
-687194
1.30057e+06
-651791
1.23468e+06
-618126
1.17208e+06
-586212
1.1126e+06
-555818
1.05607e+06
-526959
1.00243e+06
-499626
951426
-473547
903014
-448859
857053
-425421
813365
-403092
771839
-381953
732467
-361831
694977
-342719
659419
-324614
625615
-307369
593573
-291062
563115
-275532
534139
-260739
506585
-246764
480494
-233487
455664
-220887
432119
-208894
409745
-197518
388462
-186725
368262
-176472
349056
-166739
330827
-157506
313500
-148744
297050
-140424
281409
-132517
266559
-125033
252444
-117913
239034
-111167
226296
-104761
214191
-98685.5
202689
-92916.3
191764
-87449.8
181378
-82254.7
171512
-77332.2
162141
-72662.3
153233
-68229.9
144766
-64025.6
136721
-60036.7
129074
-56254.9
121810
-52672.3
114903
-49266.7
108344
-46039
102103
-42975.5
96174.4
-40071.3
90544.3
-37321.3
85185.1
-34702.9
80096.6
-32225.6
75257.5
-29868.1
70662.3
-27640.8
66290.6
-25517.3
62130.9
-23500.9
58179.7
-21588.5
54423.5
-19772.4
50860.4
-18046.9
47462.4
-16398.8
44235
-14831.1
41169
-13342.4
38253.6
-11917.9
35480.7
-10558
32844.3
-9258.02
30338.7
-8012.3
27955
-6814.37
25687.9
-5662.17
23531.6
-4548.69
21480.1
-3469.44
19528.3
-2418.93
17670.6
-1390.96
15901
-377.705
14214.5
627.106
12606.7
1632.82
11071.4
2650.48
9603.43
3690.99
8194.12
4775.07
6837.53
5909.77
5516.77
7155.6
4229.22
8447.42
2919.38
10078.8
1618.71
11424
14172.5
1.72758e+06
-756807
1.64035e+06
-717746
1.55756e+06
-680842
1.47884e+06
-645729
1.40399e+06
-612339
1.33294e+06
-580749
1.26542e+06
-550605
1.20123e+06
-522018
1.14028e+06
-494872
1.08244e+06
-469116
1.0274e+06
-444585
975174
-421323
925591
-399275
878435
-378265
833648
-358305
791095
-339400
750697
-321433
712363
-304385
675895
-288147
641286
-272759
608407
-258184
577114
-244239
547508
-231133
519301
-218557
492551
-206738
467089
-195426
442927
-184731
419971
-174563
398158
-164912
377445
-155759
357773
-147067
339081
-138814
321316
-130979
304438
-123546
288413
-116491
273182
-109802
258714
-103446
244970
-97421.9
231907
-91698.2
219494
-86272.6
207706
-81128.3
196500
-76244
185853
-71608
175737
-67215.8
166124
-63049.2
156986
-59092.3
148305
-55344.5
140060
-51791.2
132223
-48418.4
124772
-45220.8
117689
-42184.4
110963
-39312.6
104566
-36578.6
98493.4
-33998.8
92711.9
-31539.8
87225.9
-29216.9
82003.2
-27002.9
77045.6
-24910.6
72331.1
-22926.3
67846.1
-21032.4
63589.1
-19243.9
59544.7
-17544
55694.7
-15922.4
52032.9
-14385.1
48559
-12924.8
45254.2
-11526.3
42109.8
-10197.9
39122.8
-8930.9
36282.6
-7717.84
33582.5
-6557.96
31014.2
-5443.97
28572.8
-4373.01
26251.3
-3340.59
24043.9
-2341.29
21943.9
-1369.53
19946.3
-421.256
18044.9
510.434
16234.7
1432.44
14510
2351.86
12865.7
3277.1
11296.4
4219.76
9795.83
5191.57
8356.9
6214.01
6972.09
7294.59
5624.21
8503.48
4311.22
9760.42
2968.6
11421.4
1639.21
12753.4
15811.7
1.76485e+06
-663132
1.67583e+06
-628720
1.59118e+06
-596194
1.51078e+06
-565331
1.43443e+06
-535989
1.3618e+06
-508115
1.29283e+06
-481639
1.22732e+06
-456502
1.16509e+06
-432641
1.10592e+06
-409950
1.04976e+06
-388426
996433
-367995
945687
-348529
897551
-330129
851813
-312566
808368
-295956
767134
-280199
727879
-265130
690665
-250932
655293
-237387
621662
-224553
589797
-212374
559436
-200771
530695
-189816
503285
-179328
477307
-169447
452611
-160035
429154
-151106
406878
-142635
385712
-134593
365599
-126955
346488
-119703
328344
-112835
311104
-106306
294724
-100111
279153
-94231.5
264363
-88656.2
250309
-83367.9
236961
-78350.5
224282
-73593.2
212226
-69072.3
200773
-64791.1
189892
-60726.3
179552
-56876.4
169724
-53221.2
160393
-49761.4
151518
-46469.2
143085
-43358.1
135072
-40405.7
127459
-37607.6
120221
-34946.7
113340
-32430.8
106811
-30050.1
100594
-27781.5
94691
-25637.1
89077.6
-23603.5
83746
-21671.3
78675.9
-19840.4
73855
-18105.4
69280.2
-16457.6
64925.1
-14888.8
60786.6
-13405.5
56852.3
-11988.1
53115.8
-10648.7
49556.3
-9365.3
46179.3
-8149.39