/*--------------------------------*- C++ -*----------------------------------*\
  =========                 |
  \\      /  F ield         | OpenFOAM: The Open Source CFD Toolbox
   \\    /   O peration     | Website:  https://openfoam.org
    \\  /    A nd           | Version:  11
     \\/     M anipulation  |
\*---------------------------------------------------------------------------*/
FoamFile
{
    format      ascii;
    class       volVectorField;
    location    "500";
    object      U;
}
// * * * * * * * * * * * * * * * * * * * * * * * * * * * * * * * * * * * * * //

dimensions      [0 1 -1 0 0 0 0];

internalField   nonuniform List<vector> 
31595
(
(25.5178 3.3088 -9.05131e-19)
(25.6775 3.40425 3.32855e-19)
(25.6201 3.43183 1.36987e-18)
(25.6346 3.42416 1.53608e-18)
(25.6134 3.42689 0)
(25.606 3.43171 0)
(25.5833 3.43316 0)
(25.5649 3.43511 1.17136e-18)
(25.5411 3.43712 3.55483e-20)
(25.5171 3.4393 0)
(25.4906 3.44159 0)
(25.4631 3.44418 8.64015e-19)
(25.4339 3.44704 -9.10414e-19)
(25.4035 3.45024 1.0483e-18)
(25.3717 3.45378 -1.10469e-18)
(25.3387 3.45771 1.23367e-18)
(25.3042 3.46204 0)
(25.2685 3.46681 -1.54022e-18)
(25.2315 3.47203 3.26841e-18)
(25.1931 3.47774 -9.32649e-19)
(25.1532 3.48394 9.83041e-19)
(25.112 3.49068 0)
(25.0693 3.49796 0)
(25.025 3.50581 1.36547e-18)
(24.9792 3.51425 -6.88784e-19)
(24.9318 3.52332 3.38855e-20)
(24.8827 3.53301 -1.73745e-18)
(24.8319 3.54336 -9.9715e-19)
(24.7794 3.55438 2.14703e-18)
(24.725 3.56609 -2.32429e-18)
(24.6686 3.5785 0)
(24.6103 3.59162 -6.94217e-19)
(24.55 3.60546 7.97613e-19)
(24.4875 3.62002 -8.41376e-19)
(24.4229 3.6353 9.48666e-19)
(24.356 3.65131 -1.05558e-18)
(24.2866 3.66804 5.59594e-19)
(24.2149 3.68547 1.8631e-18)
(24.1405 3.70361 0)
(24.0634 3.72242 -7.65585e-19)
(23.9836 3.74189 1.63719e-18)
(23.9008 3.762 0)
(23.8148 3.78271 0)
(23.7257 3.80401 -5.62065e-19)
(23.6331 3.82584 2.35641e-18)
(23.537 3.84818 0)
(23.437 3.87097 -7.33261e-19)
(23.333 3.89419 1.56892e-18)
(23.2248 3.91778 -8.83622e-19)
(23.1122 3.94168 9.59681e-19)
(22.9947 3.96584 -2.60357e-18)
(22.8722 3.9902 5.64158e-19)
(22.7444 4.01469 -1.89648e-18)
(22.6109 4.03924 2.76584e-18)
(22.4713 4.06378 -7.37386e-19)
(22.3252 4.08822 -1.66704e-18)
(22.1723 4.11247 -9.4223e-19)
(22.012 4.13641 -5.39645e-19)
(21.8438 4.15995 -1.14951e-18)
(21.6671 4.18294 1.83596e-18)
(21.4814 4.20525 -1.11042e-20)
(21.286 4.2267 7.51553e-19)
(21.0801 4.24712 4.03288e-20)
(20.8629 4.26628 -4.25397e-19)
(20.6335 4.28394 5.35702e-19)
(20.3909 4.29981 -2.25792e-18)
(20.134 4.31356 -6.34716e-19)
(19.8615 4.32478 6.9952e-19)
(19.572 4.33302 2.34088e-18)
(19.264 4.33772 5.33448e-20)
(18.9355 4.3382 -1.40119e-18)
(18.5847 4.33368 2.30849e-20)
(18.2092 4.32317 1.22446e-18)
(17.8062 4.30548 0)
(17.3728 4.27912 1.53766e-18)
(16.9053 4.24227 0)
(16.3996 4.19261 9.90483e-19)
(15.8508 4.12721 0)
(15.2531 4.04228 0)
(14.5997 3.93296 0)
(13.8825 3.79279 1.74065e-18)
(13.0917 3.61327 1.01899e-18)
(12.2153 3.38285 -1.83014e-18)
(11.2401 3.08536 -1.49654e-18)
(10.148 2.70084 8.77703e-19)
(8.92281 2.19068 5.78349e-19)
(7.53878 1.54055 7.73216e-19)
(5.99296 0.581466 -1.04954e-18)
(4.25915 -0.317913 1.61193e-18)
(25.6354 3.35131 2.84531e-18)
(25.6453 3.40585 1.51427e-18)
(25.6474 3.44973 1.28985e-18)
(25.6345 3.44259 -4.42263e-18)
(25.6208 3.44463 0)
(25.6062 3.45024 0)
(25.5872 3.45322 1.97478e-18)
(25.5663 3.45569 0)
(25.5435 3.45863 0)
(25.519 3.46168 -2.64628e-18)
(25.493 3.46492 -4.41814e-18)
(25.4656 3.46846 3.18892e-18)
(25.4367 3.47235 1.76812e-18)
(25.4066 3.4766 3.95366e-18)
(25.3752 3.48125 -2.11504e-18)
(25.3425 3.48633 -1.19716e-18)
(25.3085 3.49186 1.33849e-18)
(25.2732 3.49787 -4.26756e-18)
(25.2366 3.50439 2.41509e-20)
(25.1987 3.51143 -3.43751e-18)
(25.1594 3.51903 0)
(25.1187 3.52719 0)
(25.0765 3.53595 0)
(25.0328 3.54533 0)
(24.9876 3.55535 2.78192e-18)
(24.9409 3.56604 0)
(24.8924 3.5774 3.39051e-18)
(24.8423 3.58947 0)
(24.7903 3.60226 2.03022e-18)
(24.7366 3.61578 1.13502e-18)
(24.681 3.63006 -1.26311e-18)
(24.6233 3.6451 1.31463e-18)
(24.5637 3.66091 1.46361e-18)
(24.5019 3.6775 -1.67358e-18)
(24.438 3.69487 1.76561e-18)
(24.3717 3.71304 -1.00877e-18)
(24.303 3.73199 2.1581e-18)
(24.2319 3.75172 -1.20074e-18)
(24.1582 3.77222 0)
(24.0817 3.79348 0)
(24.0024 3.81549 -3.16926e-18)
(23.9201 3.83822 -1.6863e-20)
(23.8347 3.86167 0)
(23.7461 3.8858 2.066e-18)
(23.6539 3.91059 -2.25391e-18)
(23.5581 3.936 -1.23287e-18)
(23.4585 3.96201 0)
(23.3548 3.98858 0)
(23.2469 4.01567 0)
(23.1343 4.04323 9.20166e-19)
(23.017 4.07122 1.01107e-18)
(22.8945 4.09958 1.11127e-18)
(22.7667 4.12828 1.22182e-18)
(22.633 4.15723 -1.34382e-18)
(22.4932 4.18639 7.09506e-19)
(22.3468 4.21567 -3.14154e-20)
(22.1934 4.24499 1.78441e-18)
(22.0326 4.27427 -9.78961e-19)
(21.8637 4.30341 1.07613e-18)
(21.6863 4.33229 -1.16978e-18)
(21.4996 4.36079 -6.21803e-19)
(21.303 4.38875 -2.16769e-18)
(21.0957 4.41601 8.1129e-19)
(20.877 4.44238 -9.13425e-19)
(20.6458 4.46762 -2.3167e-20)
(20.401 4.49149 3.32396e-18)
(20.1416 4.51365 -1.22123e-18)
(19.8663 4.53376 2.72513e-18)
(19.5736 4.55136 -2.23332e-18)
(19.2617 4.56594 8.56743e-19)
(18.9289 4.57686 -9.6875e-19)
(18.5731 4.58336 1.04034e-18)
(18.1916 4.58447 -1.80634e-18)
(17.7819 4.57905 1.3108e-18)
(17.3405 4.56564 -7.78179e-19)
(16.8638 4.54242 0)
(16.3472 4.50709 1.9583e-18)
(15.7856 4.45669 2.24122e-18)
(15.1728 4.38739 2.57932e-18)
(14.5014 4.29421 7.66525e-19)
(13.7626 4.17046 -3.49296e-18)
(12.9459 4.00731 -1.05148e-18)
(12.0384 3.79248 -2.45617e-18)
(11.0254 3.50898 3.70175e-18)
(9.8873 3.13432 1.84507e-18)
(8.60714 2.62894 -4.10516e-18)
(7.15511 1.96658 -2.35401e-18)
(5.54078 0.992114 -5.59172e-18)
(3.64913 0.00242652 9.32721e-18)
(25.6601 3.39866 -2.33888e-18)
(25.654 3.42563 -2.45107e-18)
(25.6565 3.46651 2.57365e-18)
(25.6414 3.46295 1.43751e-19)
(25.6257 3.46353 -3.22202e-18)
(25.6097 3.46919 3.39362e-18)
(25.5906 3.47303 3.82214e-18)
(25.5694 3.47617 -2.06073e-18)
(25.5465 3.47979 0)
(25.5222 3.48369 2.57658e-18)
(25.4964 3.48782 2.83875e-18)
(25.4692 3.49228 -1.56337e-18)
(25.4407 3.49715 -1.72161e-18)
(25.4109 3.50244 -1.95503e-18)
(25.3799 3.50817 2.02811e-18)
(25.3476 3.51438 0)
(25.3141 3.52109 2.56495e-18)
(25.2793 3.52833 2.81306e-18)
(25.2432 3.53612 0)
(25.2059 3.54448 -1.62445e-18)
(25.1671 3.55345 0)
(25.127 3.56303 -2.00089e-18)
(25.0855 3.57325 0)
(25.0424 3.58415 4.91607e-18)
(24.9979 3.59573 -5.25685e-18)
(24.9518 3.60802 -5.8178e-18)
(24.904 3.62104 -3.29575e-18)
(24.8545 3.63482 1.74867e-18)
(24.8033 3.64937 -1.97794e-18)
(24.7503 3.66471 0)
(24.6954 3.68085 0)
(24.6385 3.69781 -1.32776e-18)
(24.5796 3.71561 2.76959e-18)
(24.5186 3.73424 1.5385e-18)
(24.4553 3.75373 0)
(24.3898 3.77407 0)
(24.3219 3.79527 -2.12075e-18)
(24.2514 3.81733 2.23844e-18)
(24.1783 3.84023 -1.27842e-18)
(24.1026 3.86399 5.4766e-18)
(24.0239 3.88858 3.07785e-18)
(23.9422 3.91401 4.52999e-20)
(23.8574 3.94024 -1.80334e-18)
(23.7692 3.96728 -3.59356e-20)
(23.6776 3.99509 2.21438e-18)
(23.5822 4.02365 -2.38969e-18)
(23.483 4.05295 1.3517e-18)
(23.3797 4.08295 1.37298e-20)
(23.272 4.11363 0)
(23.1597 4.14494 -1.74326e-18)
(23.0425 4.17685 -1.91714e-18)
(22.9202 4.20933 2.10904e-18)
(22.7923 4.24233 -1.12698e-18)
(22.6586 4.2758 -2.57867e-18)
(22.5186 4.30969 -3.61842e-20)
(22.372 4.34394 1.59511e-18)
(22.2183 4.37847 -1.69083e-18)
(22.0569 4.41323 -9.69996e-19)
(21.8875 4.44811 3.09649e-18)
(21.7093 4.48303 1.11942e-18)
(21.5217 4.51787 1.2564e-18)
(21.3241 4.55251 1.42499e-18)
(21.1156 4.5868 -1.55882e-18)
(20.8953 4.62057 0)
(20.6624 4.6536 0)
(20.4157 4.68568 -4.30495e-18)
(20.154 4.71651 -1.2029e-18)
(19.876 4.74575 0)
(19.5801 4.77299 0)
(19.2648 4.79776 -1.6652e-18)
(18.9279 4.81944 0)
(18.5672 4.83731 -3.1439e-18)
(18.1803 4.85045 1.14971e-18)
(17.7641 4.85775 2.76009e-20)
(17.3153 4.85778 -3.73243e-18)
(16.8298 4.84876 8.34604e-19)
(16.303 4.82839 -2.89447e-18)
(15.7292 4.79374 -3.32945e-18)
(15.1019 4.74094 -2.58046e-18)
(14.4133 4.66491 2.98895e-18)
(13.6538 4.55881 -3.5043e-18)
(12.812 4.41348 2.07806e-18)
(11.8739 4.21602 2.49283e-18)
(10.8234 3.94864 -6.86894e-18)
(9.63895 3.58647 9.30566e-19)
(8.30206 3.0889 1.82444e-18)
(6.78013 2.41809 8.1834e-19)
(5.08633 1.43218 1.3454e-17)
(3.06523 0.353828 -1.56587e-17)
(25.6775 3.43823 -2.01362e-18)
(25.6629 3.44953 -2.35946e-18)
(25.663 3.48458 -2.35744e-18)
(25.6476 3.48305 2.79224e-18)
(25.6305 3.48287 6.42416e-20)
(25.6135 3.48822 0)
(25.5943 3.49264 6.21446e-20)
(25.5729 3.49641 -2.02013e-18)
(25.5501 3.50066 2.18603e-18)
(25.5259 3.50533 0)
(25.5003 3.51031 2.77165e-18)
(25.4734 3.51569 -2.92043e-18)
(25.4453 3.52152 -3.35799e-18)
(25.4159 3.52782 1.71654e-18)
(25.3853 3.53462 0)
(25.3535 3.54194 0)
(25.3205 3.54982 -2.3821e-18)
(25.2863 3.55827 -2.67148e-18)
(25.2508 3.56732 2.88173e-18)
(25.214 3.57698 6.5065e-18)
(25.1759 3.5873 3.37879e-20)
(25.1364 3.59828 -3.85605e-18)
(25.0955 3.60995 -8.95338e-20)
(25.0532 3.62234 -6.9564e-20)
(25.0093 3.63547 5.3243e-20)
(24.9639 3.64936 2.85729e-18)
(24.9169 3.66403 0)
(24.8682 3.6795 1.74587e-18)
(24.8178 3.69581 -3.75976e-18)
(24.7655 3.71295 -2.12559e-18)
(24.7114 3.73095 -9.24598e-20)
(24.6553 3.74984 -2.07165e-20)
(24.5972 3.76961 -2.76449e-18)
(24.537 3.79029 0)
(24.4745 3.81189 0)
(24.4098 3.83442 -1.85171e-18)
(24.3427 3.85787 -1.6103e-20)
(24.273 3.88226 0)
(24.2007 3.90759 0)
(24.1257 3.93386 -2.66519e-18)
(24.0477 3.96106 -1.46352e-18)
(23.9668 3.98919 3.15065e-18)
(23.8826 4.01824 3.55025e-18)
(23.7951 4.04821 -1.92344e-18)
(23.7041 4.07907 4.24345e-18)
(23.6094 4.11083 6.43392e-20)
(23.5107 4.14345 0)
(23.4079 4.17693 -1.41375e-18)
(23.3006 4.21123 3.0516e-18)
(23.1888 4.24635 3.43856e-18)
(23.0719 4.28224 -1.79638e-18)
(22.9499 4.31889 -2.06896e-18)
(22.8222 4.35626 2.27757e-18)
(22.6887 4.39431 0)
(22.5488 4.43301 -2.71804e-18)
(22.4022 4.4723 0)
(22.2484 4.51213 0)
(22.0869 4.55246 0)
(21.9171 4.5932 -2.04812e-18)
(21.7385 4.63428 1.14781e-18)
(21.5504 4.67561 1.24814e-18)
(21.352 4.71708 0)
(21.1426 4.75857 6.50603e-20)
(20.9213 4.79993 2.08597e-20)
(20.687 4.84098 0)
(20.4387 4.88152 1.03526e-18)
(20.1752 4.92129 1.17035e-18)
(19.8949 4.95999 -2.58389e-18)
(19.5965 4.99726 0)
(19.2781 5.03263 0)
(18.9376 5.06557 0)
(18.5727 5.09538 1.0108e-18)
(18.1809 5.1212 1.13248e-18)
(17.7589 5.14197 0)
(17.3032 5.15633 -3.09499e-20)
(16.8095 5.16254 5.02142e-18)
(16.273 5.15838 9.48663e-19)
(15.6876 5.14092 2.22885e-18)
(15.0464 5.10632 -4.48708e-18)
(14.341 5.04949 -5.00948e-20)
(13.561 4.96345 8.7617e-19)
(12.6942 4.83883 -1.07959e-18)
(11.7252 4.66217 1.24052e-18)
(10.6363 4.41495 6.24899e-18)
(9.40371 4.06999 0)
(8.00662 3.58536 5.83979e-18)
(6.40989 2.91121 6.31898e-18)
(4.62415 1.91843 -1.09592e-17)
(2.45851 0.756403 9.82426e-18)
(25.685 3.47112 3.97606e-18)
(25.6692 3.4728 0)
(25.6682 3.5027 2.30948e-18)
(25.653 3.50254 5.2679e-18)
(25.6351 3.50208 -2.78944e-18)
(25.6176 3.50705 -3.14683e-18)
(25.5982 3.5119 7.13285e-18)
(25.5769 3.51626 -7.75743e-18)
(25.5541 3.52112 0)
(25.5301 3.52652 2.42278e-18)
(25.5049 3.53233 -2.55273e-18)
(25.4783 3.53859 0)
(25.4506 3.54536 0)
(25.4217 3.55266 0)
(25.3916 3.56051 3.77923e-18)
(25.3603 3.56894 0)
(25.3279 3.57796 2.33452e-18)
(25.2942 3.5876 -2.59847e-18)
(25.2594 3.59789 -8.52338e-20)
(25.2232 3.60885 -3.0385e-18)
(25.1858 3.6205 -3.52955e-18)
(25.147 3.63287 7.39754e-18)
(25.1068 3.64597 0)
(25.0652 3.65984 4.43841e-18)
(25.0221 3.6745 4.93477e-18)
(24.9775 3.68997 -9.13616e-20)
(24.9313 3.70627 2.92362e-18)
(24.8834 3.72343 0)
(24.8338 3.74148 0)
(24.7824 3.76041 4.02284e-18)
(24.7291 3.78028 -2.05981e-18)
(24.6739 3.80107 -2.28812e-18)
(24.6166 3.82283 2.59371e-18)
(24.5573 3.84556 2.84957e-18)
(24.4957 3.86927 -3.2351e-18)
(24.4318 3.89399 5.19143e-18)
(24.3656 3.91971 5.72222e-20)
(24.2968 3.94645 0)
(24.2253 3.97421 -2.28023e-18)
(24.1511 4.00301 0)
(24.074 4.03284 2.75267e-18)
(23.9939 4.0637 -6.11677e-18)
(23.9105 4.0956 -1.71578e-18)
(23.8238 4.12853 -5.36343e-20)
(23.7335 4.16248 -4.12372e-18)
(23.6394 4.19746 4.46871e-18)
(23.5414 4.23345 9.62971e-20)
(23.4392 4.27044 -2.64895e-18)
(23.3326 4.30843 1.45497e-18)
(23.2213 4.34739 -1.60325e-18)
(23.1049 4.38733 1.81523e-18)
(22.9833 4.4282 -6.11769e-20)
(22.8561 4.47 -8.61727e-20)
(22.7229 4.51271 2.35912e-18)
(22.5832 4.55629 2.6743e-18)
(22.4368 4.60071 -1.49313e-18)
(22.2831 4.64594 -6.4593e-20)
(22.1216 4.69194 -7.16577e-20)
(21.9517 4.73865 3.88739e-18)
(21.7729 4.78601 -1.11376e-18)
(21.5844 4.83396 -8.85254e-20)
(21.3855 4.88241 3.96577e-18)
(21.1755 4.93126 2.99025e-18)
(20.9533 4.98039 -4.93092e-18)
(20.718 5.02966 -1.8736e-18)
(20.4684 5.07889 2.00029e-18)
(20.2033 5.12787 2.29017e-18)
(19.9211 5.17632 3.39243e-20)
(19.6204 5.22393 0)
(19.2992 5.27029 -1.63064e-18)
(18.9555 5.31491 2.66906e-18)
(18.5868 5.35715 -9.86929e-19)
(18.1903 5.39623 0)
(17.7629 5.43115 -1.32097e-18)
(17.3006 5.46062 1.4341e-18)
(16.7992 5.48299 -3.36029e-18)
(16.2532 5.4961 -3.82029e-18)
(15.6566 5.49711 4.40765e-18)
(15.0017 5.48224 5.13715e-18)
(14.2796 5.44644 -1.86433e-20)
(13.4791 5.38267 3.56179e-18)
(12.5869 5.28144 1.09178e-18)
(11.5861 5.12885 -6.41753e-18)
(10.4575 4.90574 -3.20848e-18)
(9.17396 4.58287 0)
(7.7121 4.11654 -5.45824e-18)
(6.03279 3.44558 -8.78768e-18)
(4.13202 2.45467 1.41611e-17)
(1.82864 1.20903 0)
(25.691 3.49813 0)
(25.6742 3.49452 0)
(25.6726 3.52019 0)
(25.6577 3.5211 -2.53422e-18)
(25.6394 3.52069 -2.88687e-18)
(25.6217 3.52543 3.04111e-18)
(25.6023 3.53067 -6.3476e-20)
(25.5811 3.5356 -3.72821e-18)
(25.5586 3.54108 -4.10472e-18)
(25.5349 3.5472 0)
(25.51 3.55382 -4.96657e-18)
(25.4838 3.56095 0)
(25.4566 3.56865 3.00334e-18)
(25.4282 3.57694 0)
(25.3986 3.58582 -3.71476e-18)
(25.368 3.59533 4.13089e-18)
(25.3361 3.60548 3.50661e-20)
(25.3031 3.61631 0)
(25.2689 3.62782 2.65232e-18)
(25.2335 3.64005 -2.94674e-18)
(25.1967 3.65302 -1.02587e-19)
(25.1587 3.66675 -3.52327e-18)
(25.1193 3.68127 3.87273e-18)
(25.0785 3.69661 -8.6204e-18)
(25.0362 3.71278 -2.39854e-18)
(24.9924 3.72982 2.52949e-20)
(24.947 3.74774 -2.80702e-18)
(24.9 3.76657 0)
(24.8513 3.78634 3.53263e-18)
(24.8008 3.80707 -3.59497e-18)
(24.7484 3.82878 -1.98165e-18)
(24.6941 3.85149 4.58616e-18)
(24.6378 3.87522 -5.12543e-18)
(24.5794 3.89999 -2.91531e-18)
(24.5188 3.92582 -1.22566e-19)
(24.4559 3.95272 6.58067e-18)
(24.3905 3.98072 0)
(24.3227 4.00981 0)
(24.2522 4.04003 -2.01628e-20)
(24.1789 4.07136 -1.52097e-20)
(24.1027 4.10383 -2.7099e-18)
(24.0235 4.13745 -2.72181e-20)
(23.941 4.17221 -1.67251e-18)
(23.8551 4.20812 3.44378e-18)
(23.7657 4.24519 1.91928e-18)
(23.6725 4.28342 0)
(23.5753 4.32281 0)
(23.4738 4.36336 2.65764e-18)
(23.3679 4.40506 -5.70784e-18)
(23.2573 4.44792 0)
(23.1416 4.49194 -5.20869e-18)
(23.0206 4.53709 -2.00971e-18)
(22.894 4.58338 2.07007e-18)
(22.7612 4.63079 0)
(22.6221 4.67932 2.5398e-18)
(22.476 4.72894 -1.44714e-18)
(22.3226 4.77964 3.13437e-18)
(22.1613 4.83139 -5.12326e-18)
(21.9916 4.88416 -3.63285e-20)
(21.8128 4.93791 0)
(21.6242 4.99259 -2.369e-18)
(21.4251 5.04815 -2.62717e-18)
(21.2147 5.10451 1.47827e-18)
(20.992 5.16157 2.18196e-20)
(20.7559 5.21923 1.75386e-18)
(20.5053 5.27736 -4.01686e-18)
(20.2389 5.33575 1.04275e-18)
(19.9553 5.39422 2.53078e-18)
(19.6526 5.45246 -1.36557e-18)
(19.3291 5.51014 0)
(18.9825 5.56683 3.49478e-18)
(18.6104 5.62195 3.94289e-18)
(18.2097 5.6748 0)
(17.7772 5.72447 -1.30614e-18)
(17.3089 5.76973 2.33558e-20)
(16.8001 5.80905 -4.92609e-18)
(16.2453 5.84038 2.85822e-18)
(15.6378 5.861 2.16952e-18)
(14.9697 5.8672 -1.02815e-17)
(14.2312 5.85402 -1.5577e-18)
(13.4103 5.81445 -9.21891e-19)
(12.4928 5.7389 -4.35714e-18)
(11.4599 5.61313 5.22872e-18)
(10.2903 5.41739 -5.83851e-18)
(8.95361 5.12053 1.04637e-18)
(7.42307 4.67663 0)
(5.65128 4.01611 0)
(3.60243 3.03516 1.93176e-18)
(1.19399 1.68811 -6.39132e-18)
(25.6958 3.52059 0)
(25.6781 3.51421 0)
(25.6762 3.53648 0)
(25.6619 3.53845 2.00843e-19)
(25.6436 3.53845 -2.68673e-18)
(25.6258 3.54314 6.01806e-18)
(25.6066 3.54879 -6.57298e-18)
(25.5857 3.55433 1.09946e-17)
(25.5635 3.56045 1.251e-19)
(25.5401 3.56728 0)
(25.5156 3.5747 4.89589e-18)
(25.49 3.58271 2.72135e-18)
(25.4632 3.59133 -5.82876e-18)
(25.4354 3.60058 0)
(25.4064 3.61049 3.61553e-18)
(25.3764 3.62107 -3.81062e-18)
(25.3452 3.63234 4.16527e-20)
(25.3129 3.64433 -4.6051e-18)
(25.2794 3.65705 2.42973e-20)
(25.2447 3.67054 9.25527e-20)
(25.2088 3.68481 -1.11602e-19)
(25.1715 3.69989 6.83606e-18)
(25.1329 3.71581 -1.01679e-19)
(25.093 3.7326 8.28355e-18)
(25.0516 3.75027 0)
(25.0087 3.76885 0)
(24.9642 3.78838 0)
(24.9181 3.80887 0)
(24.8704 3.83035 -6.66936e-18)
(24.8208 3.85285 7.2798e-18)
(24.7694 3.8764 8.05439e-18)
(24.7161 3.90101 -2.21114e-18)
(24.6608 3.92671 -4.86336e-18)
(24.6034 3.95351 2.61146e-18)
(24.5438 3.98145 0)
(24.4819 4.01055 -9.71194e-18)
(24.4176 4.04081 -3.62653e-18)
(24.3508 4.07227 -1.99315e-20)
(24.2813 4.10493 0)
(24.2091 4.13882 6.23798e-20)
(24.1339 4.17394 0)
(24.0557 4.21032 -2.89532e-18)
(23.9742 4.24796 6.21714e-18)
(23.8893 4.28687 -3.4723e-18)
(23.8008 4.32708 -1.9258e-18)
(23.7086 4.36858 -8.25186e-20)
(23.6123 4.41139 2.24106e-18)
(23.5118 4.45552 0)
(23.4068 4.50098 -2.73377e-18)
(23.297 4.54776 0)
(23.1822 4.59589 6.71912e-18)
(23.062 4.64536 -1.89178e-18)
(22.9361 4.69618 2.00465e-18)
(22.8041 4.74836 2.30275e-18)
(22.6656 4.80189 -4.87636e-18)
(22.5201 4.85677 -2.69787e-18)
(22.3673 4.913 0)
(22.2065 4.97058 3.39841e-18)
(22.0371 5.02949 -1.88092e-18)
(21.8586 5.08971 0)
(21.6703 5.15123 -2.26405e-18)
(21.4713 5.214 0)
(21.2608 5.27799 0)
(21.0379 5.34313 -1.60631e-18)
(20.8014 5.40935 3.50539e-18)
(20.5503 5.47654 2.0543e-18)
(20.2831 5.54458 9.48928e-20)
(19.9983 5.61329 7.04256e-20)
(19.6942 5.68245 0)
(19.3689 5.75177 0)
(19.0201 5.82089 -5.16123e-18)
(18.6451 5.88932 -3.86051e-18)
(18.241 5.95644 -6.58152e-18)
(17.8042 6.02143 -1.29506e-18)
(17.3306 6.08319 4.31347e-18)
(16.8154 6.14031 3.3283e-18)
(16.2526 6.19087 9.78426e-19)
(15.6352 6.23229 -5.52952e-18)
(14.9549 6.26102 5.19866e-18)
(14.2011 6.27223 0)
(13.3611 6.25903 -3.61931e-18)
(12.4193 6.21187 6.68903e-18)
(11.3552 6.1163 -2.65162e-18)
(10.1454 5.9522 6.90428e-18)
(8.75535 5.68674 0)
(7.1551 5.27234 0)
(5.28236 4.63665 1.25018e-18)
(3.07871 3.67219 -2.44415e-18)
(0.596507 2.19305 -3.40986e-18)
(25.7003 3.53934 0)
(25.6817 3.53189 0)
(25.6795 3.55148 -4.26464e-18)
(25.6658 3.55452 9.67477e-18)
(25.6477 3.55519 -1.05084e-17)
(25.6299 3.56005 -5.76813e-18)
(25.6111 3.56615 -3.27042e-18)
(25.5905 3.57234 3.48572e-18)
(25.5687 3.57914 1.64266e-19)
(25.5458 3.5867 -8.5112e-18)
(25.5218 3.59494 -3.11991e-20)
(25.4967 3.60381 -5.06407e-18)
(25.4705 3.61334 -2.68072e-18)
(25.4433 3.62357 1.80752e-20)
(25.415 3.63449 1.23384e-19)
(25.3856 3.64612 -7.49488e-18)
(25.3552 3.6585 8.08645e-18)
(25.3236 3.67163 1.65658e-19)
(25.2909 3.68555 -2.33164e-18)
(25.257 3.70027 -8.05561e-18)
(25.2219 3.71583 -3.04295e-18)
(25.1855 3.73224 -3.24823e-18)
(25.1478 3.74954 -3.67622e-18)
(25.1087 3.76775 2.97246e-20)
(25.0682 3.7869 -1.30772e-17)
(25.0263 3.80702 7.17599e-18)
(24.9828 3.82813 -5.1964e-18)
(24.9377 3.85026 -1.07381e-19)
(24.8909 3.87344 -3.55711e-20)
(24.8424 3.89771 7.02712e-18)
(24.7921 3.92307 -7.69682e-18)
(24.7398 3.94957 -4.30108e-18)
(24.6856 3.97722 9.33211e-18)
(24.6293 4.00606 -2.51149e-18)
(24.5708 4.03611 -5.64662e-18)
(24.51 4.06738 6.17304e-18)
(24.4468 4.09992 3.44958e-18)
(24.3811 4.13373 3.79196e-18)
(24.3127 4.16884 -4.04919e-18)
(24.2416 4.20528 2.29165e-18)
(24.1676 4.24306 0)
(24.0905 4.2822 9.76876e-20)
(24.0101 4.32273 -2.94981e-18)
(23.9264 4.36466 3.26052e-18)
(23.839 4.40801 1.85871e-18)
(23.7478 4.4528 -4.01175e-18)
(23.6527 4.49905 2.16445e-18)
(23.5532 4.54678 2.48126e-18)
(23.4493 4.59601 -2.64838e-18)
(23.3405 4.64674 2.89459e-18)
(23.2267 4.69901 -6.50403e-18)
(23.1075 4.75283 1.83265e-18)
(22.9825 4.80822 -1.94257e-18)
(22.8514 4.86519 -2.23366e-18)
(22.7138 4.92377 7.28276e-18)
(22.5692 4.98396 -5.25697e-18)
(22.4171 5.04578 -1.50963e-18)
(22.2571 5.10924 -1.62754e-18)
(22.0884 5.17435 1.85233e-18)
(21.9105 5.24113 -7.99732e-18)
(21.7227 5.30957 4.4428e-18)
(21.5241 5.37965 -2.53503e-18)
(21.3139 5.45138 4.02026e-18)
(21.0912 5.52472 4.5435e-18)
(20.8548 5.59964 0)
(20.6035 5.67607 0)
(20.336 5.75394 2.19143e-18)
(20.0506 5.83312 -2.35066e-18)
(19.7457 5.91345 2.66899e-18)
(19.4191 5.99471 0)
(19.0686 6.07662 6.28507e-20)
(18.6915 6.15878 -3.83948e-18)
(18.2847 6.24066 -1.05093e-18)
(17.8444 6.32156 1.22554e-18)
(17.3665 6.40053 0)
(16.8457 6.47629 4.96043e-18)
(16.276 6.5471 -1.86168e-18)
(15.65 6.61057 1.13887e-18)
(14.9587 6.66338 -2.60683e-18)
(14.1911 6.70091 1.50427e-18)
(13.3334 6.7165 3.71871e-18)
(12.3688 6.7008 0)
(11.275 6.63936 0)
(10.0263 6.51204 7.14556e-18)
(8.58369 6.28473 -9.56724e-18)
(6.91412 5.91007 0)
(4.93284 5.31451 0)
(2.62251 4.36 -2.66645e-17)
(-0.0346753 2.79035 -3.21364e-17)
(25.7047 3.55505 3.56659e-18)
(25.6853 3.5477 -9.1064e-21)
(25.6826 3.56516 -4.24678e-18)
(25.6695 3.56927 0)
(25.6518 3.57083 -5.26472e-18)
(25.6342 3.57605 1.12639e-17)
(25.6157 3.58268 -6.12064e-18)
(25.5956 3.58957 1.19509e-19)
(25.5743 3.59708 -3.66476e-18)
(25.5519 3.60541 0)
(25.5284 3.61446 4.56925e-18)
(25.5039 3.6242 5.01981e-18)
(25.4784 3.63465 -2.62035e-18)
(25.4518 3.64583 2.72927e-18)
(25.4242 3.65776 6.54539e-18)
(25.3956 3.67044 -7.23099e-18)
(25.3659 3.68391 3.7607e-18)
(25.3351 3.69817 4.41617e-18)
(25.3032 3.71326 0)
(25.2702 3.72921 1.05007e-17)
(25.236 3.74603 -5.78773e-18)
(25.2005 3.76376 9.44918e-18)
(25.1637 3.78242 0)
(25.1256 3.80204 -3.91321e-18)
(25.0861 3.82265 4.10131e-18)
(25.0452 3.84428 4.53547e-18)
(25.0027 3.86695 2.58181e-18)
(24.9587 3.89071 -2.83741e-18)
(24.913 3.91557 3.11877e-18)
(24.8656 3.94158 0)
(24.8163 3.96875 3.6474e-18)
(24.7652 3.99712 -1.55108e-19)
(24.7121 4.02672 1.96178e-18)
(24.657 4.05757 -1.00063e-19)
(24.5996 4.08972 8.17131e-18)
(24.54 4.12317 1.20549e-19)
(24.478 4.15796 1.32361e-19)
(24.4135 4.19412 -7.07084e-18)
(24.3464 4.23169 4.01875e-18)
(24.2765 4.27067 -2.22287e-18)
(24.2037 4.31111 -9.64503e-20)
(24.1278 4.35302 5.25815e-18)
(24.0487 4.39644 -2.96038e-18)
(23.9662 4.44139 -3.24884e-18)
(23.88 4.4879 -1.29077e-19)
(23.7901 4.53599 9.57886e-18)
(23.6961 4.58569 -4.26591e-18)
(23.5979 4.63704 2.3029e-18)
(23.4951 4.69005 0)
(23.3876 4.74476 -2.81152e-18)
(23.2749 4.8012 6.29369e-18)
(23.1569 4.8594 1.77474e-18)
(23.0331 4.91938 -3.70388e-18)
(22.9031 4.98119 -2.0788e-18)
(22.7665 5.04485 0)
(22.623 5.11039 2.62614e-18)
(22.4719 5.17785 1.01958e-19)
(22.3128 5.24725 1.0221e-19)
(22.1451 5.31864 0)
(21.968 5.39204 7.82353e-18)
(21.781 5.46748 0)
(21.5831 5.54498 2.38727e-18)
(21.3736 5.62455 -2.72324e-18)
(21.1513 5.70623 -3.03552e-18)
(20.9153 5.78999 -1.59644e-18)
(20.6642 5.87583 -1.83502e-18)
(20.3967 5.96372 0)
(20.1112 6.05359 0)
(19.8058 6.14536 -2.67578e-18)
(19.4785 6.23888 -1.529e-18)
(19.1268 6.33394 1.71992e-18)
(18.7481 6.43025 3.86057e-18)
(18.3391 6.52739 6.61861e-18)
(17.896 6.62482 -2.42674e-18)
(17.4143 6.72172 2.81802e-18)
(16.8887 6.81699 -5.91704e-20)
(16.3128 6.90913 3.76656e-18)
(15.6789 6.99597 0)
(14.9774 7.07449 0)
(14.1966 7.14041 -6.16867e-18)
(13.3219 7.18739 1.92978e-18)
(12.335 7.20649 1.13988e-18)
(11.2117 7.18356 1.4093e-18)
(9.92367 7.0988 -5.61967e-18)
(8.42726 6.9175 -2.38404e-18)
(6.6852 6.59527 1.32273e-17)
(4.58905 6.04714 -2.22006e-17)
(2.19005 5.10585 -3.0002e-18)
(-0.750187 3.49812 1.90951e-19)
(25.7089 3.56825 2.79737e-18)
(25.6891 3.56178 0)
(25.6857 3.57758 4.15494e-18)
(25.6732 3.58275 0)
(25.6559 3.58535 5.11509e-18)
(25.6386 3.59109 -5.38884e-18)
(25.6206 3.59834 3.0161e-18)
(25.601 3.60597 6.68785e-18)
(25.5802 3.61424 -7.23796e-18)
(25.5583 3.62335 -1.60591e-19)
(25.5355 3.63323 4.26901e-18)
(25.5116 3.64385 0)
(25.4868 3.65522 5.32486e-18)
(25.4609 3.66735 -5.84745e-18)
(25.4341 3.68027 -6.33683e-18)
(25.4063 3.69399 3.38432e-18)
(25.3774 3.70853 -1.36215e-19)
(25.3475 3.72391 0)
(25.3165 3.74016 -4.51939e-18)
(25.2844 3.75731 -1.01021e-17)
(25.2511 3.77538 2.82242e-18)
(25.2165 3.7944 -6.09751e-18)
(25.1808 3.8144 -3.29146e-18)
(25.1437 3.83541 0)
(25.1052 3.85746 3.97421e-18)
(25.0654 3.88058 4.36737e-18)
(25.024 3.9048 0)
(24.9811 3.93016 0)
(24.9365 3.95669 0)
(24.8902 3.98442 1.28397e-19)
(24.8422 4.01338 -3.48223e-18)
(24.7923 4.04361 -7.83354e-18)
(24.7404 4.07513 -4.38437e-18)
(24.6865 4.10799 4.65438e-18)
(24.6304 4.14221 -2.55916e-18)
(24.5721 4.17783 -2.81429e-18)
(24.5113 4.21488 3.21833e-18)
(24.4481 4.25338 2.59784e-19)
(24.3823 4.29339 -3.73932e-18)
(24.3137 4.33492 -6.26338e-18)
(24.2422 4.37801 2.26361e-18)
(24.1677 4.42269 0)
(24.0899 4.469 -2.85592e-18)
(24.0087 4.51697 3.1219e-18)
(23.924 4.56664 -3.44536e-18)
(23.8354 4.61803 -3.79525e-18)
(23.7428 4.6712 -4.04911e-18)
(23.6459 4.72617 0)
(23.5445 4.78299 -2.46237e-18)
(23.4383 4.84168 2.80381e-18)
(23.3269 4.90231 -9.45328e-20)
(23.2102 4.9649 0)
(23.0877 5.0295 1.8743e-18)
(22.959 5.09617 4.11785e-18)
(22.8238 5.16494 -4.55587e-18)
(22.6815 5.23586 2.4694e-18)
(22.5316 5.309 5.68155e-18)
(22.3737 5.38439 -6.08138e-18)
(22.2071 5.4621 0)
(22.0312 5.54218 -3.86495e-18)
(21.8452 5.62468 -4.18095e-18)
(21.6484 5.70967 -2.39105e-18)
(21.4397 5.79719 -2.69122e-18)
(21.2183 5.88728 1.37389e-18)
(20.983 5.98 4.92875e-18)
(20.7325 6.07538 -1.88008e-18)
(20.4654 6.17344 6.08273e-18)
(20.1801 6.27418 -2.37008e-18)
(19.8747 6.37758 3.88538e-18)
(19.5471 6.48358 1.46638e-18)
(19.1948 6.59205 3.36683e-18)
(18.8151 6.70283 0)
(18.4045 6.81563 2.20904e-18)
(17.9592 6.93003 -1.14432e-18)
(17.4744 7.04541 -5.69588e-18)
(16.9448 7.16087 -1.4967e-19)
(16.3635 7.27512 -3.93585e-18)
(15.7226 7.38632 1.02975e-18)
(15.0118 7.49176 2.63932e-18)
(14.219 7.58756 1.10557e-17)
(13.3283 7.66783 -1.96744e-18)
(12.3202 7.72415 -1.18313e-17)
(11.1683 7.74282 -5.95157e-18)
(9.84155 7.70467 7.85473e-18)
(8.29097 7.57496 2.2188e-17)
(6.47382 7.31212 -1.74471e-17)
(4.27115 6.80611 3.26556e-17)
(1.76404 5.90197 -1.98566e-18)
(-1.48796 4.29455 2.88356e-17)
(25.713 3.57933 5.61027e-18)
(25.6929 3.57429 3.94862e-18)
(25.6889 3.58883 4.01609e-18)
(25.6769 3.59501 0)
(25.6602 3.59877 0)
(25.6432 3.60517 0)
(25.6256 3.61309 5.94396e-18)
(25.6066 3.6215 -3.02647e-18)
(25.5864 3.63057 3.43962e-18)
(25.5652 3.64049 -3.91264e-18)
(25.543 3.65122 4.12306e-18)
(25.5199 3.66272 4.70637e-18)
(25.4958 3.675 -4.95989e-18)
(25.4707 3.68808 0)
(25.4447 3.70198 2.97682e-18)
(25.4177 3.71672 -2.56031e-21)
(25.3897 3.73232 -3.60113e-18)
(25.3607 3.74881 -3.95387e-18)
(25.3306 3.7662 4.5053e-18)
(25.2994 3.78453 1.81046e-19)
(25.2671 3.80383 2.72744e-18)
(25.2336 3.82412 1.10849e-19)
(25.1989 3.84543 3.28184e-18)
(25.1629 3.86781 -3.47198e-18)
(25.1256 3.89128 -7.93756e-18)
(25.0868 3.91587 4.02979e-18)
(25.0466 3.94161 4.80043e-18)
(25.0048 3.96856 -7.48978e-18)
(24.9615 3.99673 -2.78332e-18)
(24.9164 4.02616 3.17833e-18)
(24.8696 4.05689 -3.36334e-18)
(24.821 4.08895 1.54675e-19)
(24.7704 4.12239 -4.06639e-18)
(24.7178 4.15723 -9.11566e-18)
(24.6631 4.19351 2.55358e-18)
(24.6061 4.23128 -8.48228e-21)
(24.5467 4.27056 -1.23608e-19)
(24.4849 4.3114 9.94613e-18)
(24.4205 4.35383 3.75174e-18)
(24.3534 4.39789 2.21532e-18)
(24.2833 4.44362 -2.18207e-18)
(24.2102 4.49106 0)
(24.1339 4.54025 2.75589e-18)
(24.0542 4.59124 1.0947e-19)
(23.9709 4.64406 3.21494e-18)
(23.8838 4.69876 3.68759e-18)
(23.7927 4.75538 -3.76344e-18)
(23.6973 4.81397 0)
(23.5974 4.87458 -1.18294e-20)
(23.4927 4.93727 -1.10114e-19)
(23.3829 5.00208 -3.12442e-18)
(23.2677 5.06906 6.53628e-18)
(23.1467 5.13829 9.1549e-21)
(23.0195 5.20982 -3.92591e-18)
(22.8858 5.28371 -2.08787e-18)
(22.745 5.36003 -4.8092e-18)
(22.5967 5.43885 2.67109e-18)
(22.4402 5.52025 -2.19907e-20)
(22.2751 5.60431 6.5729e-18)
(22.1006 5.69109 -1.90275e-18)
(21.916 5.78069 6.2303e-18)
(21.7205 5.87319 0)
(21.5132 5.96869 0)
(21.293 6.06727 0)
(21.0588 6.16901 -3.17044e-18)
(20.8094 6.274 0)
(20.5433 6.38232 -4.10379e-18)
(20.2587 6.49404 4.49216e-18)
(19.954 6.6092 -1.3163e-18)
(19.6268 6.72783 -1.52096e-18)
(19.2746 6.84992 -1.6882e-18)
(18.8946 6.97542 3.60661e-18)
(18.4834 7.10416 2.0903e-18)
(18.0369 7.23588 4.83938e-18)
(17.5503 7.37016 0)
(17.0179 7.50633 -3.30885e-18)
(16.4327 7.64338 -1.96072e-18)
(15.7864 7.77978 2.18955e-18)
(15.0683 7.91322 -1.37034e-18)
(14.2655 8.04028 -4.9111e-18)
(13.3613 8.15566 0)
(12.3349 8.25158 2.03112e-19)
(11.1576 8.31503 4.71971e-18)
(9.79595 8.32788 -1.26305e-17)
(8.19402 8.25606 -1.68359e-17)
(6.30463 8.05606 -2.02251e-17)
(3.98613 7.60822 2.80136e-17)
(1.34666 6.77721 -2.33811e-17)
(-2.22319 5.18318 -1.07147e-17)
(25.717 3.58862 3.36864e-18)
(25.697 3.58537 -1.16062e-17)
(25.6922 3.59899 -4.01293e-18)
(25.6807 3.60614 0)
(25.6645 3.6111 0)
(25.648 3.61827 -5.09925e-18)
(25.6309 3.62693 -1.13147e-17)
(25.6125 3.63616 6.06735e-18)
(25.5929 3.64606 -3.43713e-18)
(25.5724 3.65681 0)
(25.551 3.66839 3.98014e-18)
(25.5286 3.68077 0)
(25.5053 3.69396 0)
(25.4811 3.70799 0)
(25.4559 3.72287 -2.98732e-18)
(25.4298 3.73862 6.43143e-18)
(25.4027 3.75526 3.59933e-18)
(25.3747 3.77283 -7.37527e-21)
(25.3456 3.79134 8.52137e-18)
(25.3154 3.81083 -4.39435e-18)
(25.2842 3.83133 2.6218e-18)
(25.2517 3.85287 -8.40469e-18)
(25.2181 3.87548 -1.26761e-19)
(25.1832 3.8992 6.80738e-18)
(25.1471 3.92406 -3.81952e-18)
(25.1095 3.95009 -8.38183e-18)
(25.0705 3.97734 1.34601e-17)
(25.03 4.00584 1.96893e-19)
(24.9879 4.03562 2.78676e-18)
(24.9442 4.06674 -5.87592e-18)
(24.8987 4.09921 3.36398e-18)
(24.8514 4.13309 3.69878e-18)
(24.8022 4.16841 0)
(24.751 4.20521 6.71372e-18)
(24.6976 4.24354 -7.08829e-18)
(24.6421 4.28343 -2.59826e-18)
(24.5842 4.32493 2.98284e-18)
(24.5239 4.36807 -3.14571e-18)
(24.461 4.41291 -3.46881e-18)
(24.3953 4.45949 -3.8146e-18)
(24.3268 4.50785 2.19061e-18)
(24.2553 4.55803 -2.31618e-18)
(24.1806 4.61009 -1.08619e-19)
(24.1024 4.66407 2.81234e-18)
(24.0208 4.72003 -6.32096e-18)
(23.9353 4.77802 3.41829e-18)
(23.8458 4.83808 3.9187e-18)
(23.7521 4.90029 6.33264e-18)
(23.6539 4.96469 -4.59694e-18)
(23.5509 5.03135 2.64595e-18)
(23.4428 5.10034 -5.61321e-18)
(23.3293 5.17172 3.10546e-18)
(23.21 5.24556 -3.56306e-18)
(23.0846 5.32195 5.92581e-18)
(22.9526 5.40096 6.88053e-20)