/*--------------------------------*- C++ -*----------------------------------*\
  =========                 |
  \\      /  F ield         | OpenFOAM: The Open Source CFD Toolbox
   \\    /   O peration     | Website:  https://openfoam.org
    \\  /    A nd           | Version:  11
     \\/     M anipulation  |
\*---------------------------------------------------------------------------*/
FoamFile
{
    format      ascii;
    class       volVectorField;
    location    "500";
    object      U;
}
// * * * * * * * * * * * * * * * * * * * * * * * * * * * * * * * * * * * * * //

dimensions      [0 1 -1 0 0 0 0];

internalField   nonuniform List<vector> 
31595
(
(25.517 3.3379 -9.1175e-19)
(25.6769 3.43352 3.33446e-19)
(25.6196 3.46141 1.37776e-18)
(25.634 3.45371 1.54494e-18)
(25.6128 3.45645 0)
(25.6053 3.4613 0)
(25.5827 3.46276 0)
(25.5642 3.46471 1.17708e-18)
(25.5403 3.46671 3.5589e-20)
(25.5163 3.4689 0)
(25.4897 3.47118 0)
(25.4621 3.47376 8.67817e-19)
(25.4329 3.47661 -9.14423e-19)
(25.4024 3.47979 1.05273e-18)
(25.3705 3.48333 -1.10936e-18)
(25.3373 3.48724 1.23876e-18)
(25.3028 3.49156 0)
(25.2669 3.49632 -1.54634e-18)
(25.2297 3.50152 3.28138e-18)
(25.1912 3.50721 -9.36279e-19)
(25.1512 3.5134 9.86873e-19)
(25.1098 3.52012 0)
(25.0669 3.52738 0)
(25.0225 3.53522 1.37066e-18)
(24.9765 3.54365 -6.91418e-19)
(24.9289 3.55269 3.40025e-20)
(24.8796 3.56237 -1.74402e-18)
(24.8286 3.57271 -1.00092e-18)
(24.7758 3.58372 2.15517e-18)
(24.7211 3.59541 -2.33312e-18)
(24.6645 3.60781 0)
(24.6059 3.62092 -6.96872e-19)
(24.5453 3.63476 8.00692e-19)
(24.4825 3.64932 -8.44634e-19)
(24.4175 3.66461 9.52376e-19)
(24.3502 3.68062 -1.05975e-18)
(24.2805 3.69736 5.61822e-19)
(24.2084 3.71482 1.87056e-18)
(24.1336 3.73298 0)
(24.0561 3.75183 -7.6873e-19)
(23.9758 3.77134 1.64397e-18)
(23.8925 3.79151 0)
(23.806 3.81229 0)
(23.7163 3.83365 -5.64472e-19)
(23.6232 3.85558 2.36655e-18)
(23.5265 3.87802 0)
(23.4259 3.90094 -7.36509e-19)
(23.3213 3.92429 1.57594e-18)
(23.2124 3.94802 -8.87616e-19)
(23.099 3.97209 9.64086e-19)
(22.9809 3.99644 -2.61549e-18)
(22.8576 4.02101 5.66836e-19)
(22.729 4.04573 -1.9053e-18)
(22.5946 4.07054 2.77883e-18)
(22.4542 4.09535 -7.40926e-19)
(22.3072 4.12009 -1.67506e-18)
(22.1533 4.14466 -9.46769e-19)
(21.992 4.16896 -5.42174e-19)
(21.8228 4.19287 -1.15508e-18)
(21.6451 4.21627 1.8449e-18)
(21.4583 4.23902 -1.11102e-20)
(21.2617 4.26094 7.55228e-19)
(21.0546 4.28186 4.06047e-20)
(20.8362 4.30156 -4.27586e-19)
(20.6054 4.31979 5.38296e-19)
(20.3615 4.33626 -2.26922e-18)
(20.1031 4.35066 -6.37832e-19)
(19.8291 4.36257 7.03126e-19)
(19.538 4.37154 2.35271e-18)
(19.2283 4.37701 5.34698e-20)
(18.8981 4.37832 -1.40851e-18)
(18.5454 4.37467 2.3165e-20)
(18.1678 4.3651 1.23083e-18)
(17.7628 4.3484 0)
(17.3271 4.32309 1.54582e-18)
(16.8572 4.28736 0)
(16.3489 4.23889 9.96092e-19)
(15.7973 4.17475 0)
(15.1966 4.09115 0)
(14.54 3.98326 0)
(13.8191 3.84459 1.75164e-18)
(13.0243 3.66666 1.02601e-18)
(12.1435 3.43787 -1.84359e-18)
(11.1634 3.14221 -1.50829e-18)
(10.0656 2.75924 8.85741e-19)
(8.83412 2.25152 5.84434e-19)
(7.44223 1.60159 7.82805e-19)
(5.89041 0.648725 -1.06747e-18)
(4.13742 -0.251485 1.66025e-18)
(25.635 3.38053 2.86148e-18)
(25.6447 3.43511 1.5241e-18)
(25.6468 3.47931 1.29876e-18)
(25.6339 3.47219 -4.44812e-18)
(25.6202 3.47422 0)
(25.6056 3.47986 0)
(25.5865 3.48286 1.98499e-18)
(25.5656 3.48533 0)
(25.5427 3.48828 0)
(25.5182 3.49134 -2.65885e-18)
(25.4921 3.49458 -4.43852e-18)
(25.4646 3.49811 3.20344e-18)
(25.4357 3.50199 1.77595e-18)
(25.4054 3.50624 3.97075e-18)
(25.3739 3.51088 -2.12414e-18)
(25.3411 3.51596 -1.20218e-18)
(25.307 3.52148 1.34399e-18)
(25.2716 3.52749 -4.28503e-18)
(25.2349 3.534 2.42107e-20)
(25.1968 3.54103 -3.45127e-18)
(25.1573 3.54862 0)
(25.1165 3.55678 0)
(25.0741 3.56553 0)
(25.0303 3.57491 0)
(24.9849 3.58492 2.79268e-18)
(24.9379 3.5956 0)
(24.8893 3.60696 3.40358e-18)
(24.8389 3.61903 0)
(24.7867 3.63182 2.03805e-18)
(24.7327 3.64534 1.13941e-18)
(24.6768 3.65962 -1.26801e-18)
(24.6189 3.67467 1.31975e-18)
(24.559 3.69049 1.46934e-18)
(24.4969 3.7071 -1.68019e-18)
(24.4326 3.7245 1.7726e-18)
(24.366 3.74269 -1.01281e-18)
(24.297 3.76167 2.16679e-18)
(24.2254 3.78144 -1.20563e-18)
(24.1513 3.80198 0)
(24.0744 3.8233 0)
(23.9947 3.84537 -3.18247e-18)
(23.9119 3.86818 -1.69168e-20)
(23.826 3.89172 0)
(23.7368 3.91595 2.07483e-18)
(23.6441 3.94085 -2.26364e-18)
(23.5477 3.96639 -1.23826e-18)
(23.4475 3.99254 0)
(23.3432 4.01926 0)
(23.2346 4.04652 0)
(23.1214 4.07427 9.24382e-19)
(23.0033 4.10248 1.01574e-18)
(22.8801 4.13108 1.11645e-18)
(22.7514 4.16002 1.22756e-18)
(22.617 4.18926 -1.35018e-18)
(22.4763 4.21871 7.12787e-19)
(22.329 4.24832 -3.15595e-20)
(22.1748 4.27799 1.79293e-18)
(22.0129 4.30765 -9.83611e-19)
(21.8431 4.3372 1.08146e-18)
(21.6646 4.36651 -1.17547e-18)
(21.4768 4.39547 -6.24859e-19)
(21.2791 4.42393 -2.17822e-18)
(21.0706 4.45172 8.15327e-19)
(20.8506 4.47866 -9.1791e-19)
(20.6181 4.50451 -2.33272e-20)
(20.372 4.52901 3.34044e-18)
(20.1112 4.55186 -1.22723e-18)
(19.8344 4.57269 2.73877e-18)
(19.5401 4.59107 -2.24474e-18)
(19.2266 4.60647 8.60928e-19)
(18.892 4.61826 -9.73643e-19)
(18.5343 4.62568 1.04571e-18)
(18.1509 4.62778 -1.81575e-18)
(17.7391 4.6234 1.3176e-18)
(17.2955 4.6111 -7.82395e-19)
(16.8163 4.58907 0)
(16.2972 4.55499 1.9689e-18)
(15.7328 4.50593 2.25366e-18)
(15.1169 4.43805 2.59409e-18)
(14.4422 4.34638 7.71108e-19)
(13.6998 4.22424 -3.5153e-18)
(12.8791 4.0628 -1.05832e-18)
(11.967 3.84974 -2.47388e-18)
(10.949 3.5682 3.73162e-18)
(9.8051 3.19525 1.86207e-18)
(8.51847 2.69237 -4.14988e-18)
(7.05852 2.03038 -2.38672e-18)
(5.4377 1.06193 -5.69509e-18)
(3.52613 0.0708609 9.6504e-18)
(25.6598 3.42804 -2.35338e-18)
(25.6535 3.45497 -2.46752e-18)
(25.656 3.49611 2.58894e-18)
(25.6409 3.4926 1.44194e-19)
(25.6251 3.49317 -3.23982e-18)
(25.6091 3.49886 3.41236e-18)
(25.59 3.50272 3.84196e-18)
(25.5687 3.50587 -2.07136e-18)
(25.5458 3.5095 0)
(25.5214 3.5134 2.589e-18)
(25.4955 3.51754 2.8521e-18)
(25.4682 3.52201 -1.57056e-18)
(25.4396 3.52688 -1.72936e-18)
(25.4097 3.53216 -1.96359e-18)
(25.3786 3.5379 2.03699e-18)
(25.3462 3.54411 0)
(25.3126 3.55082 2.57567e-18)
(25.2777 3.55806 2.82467e-18)
(25.2415 3.56585 0)
(25.204 3.57421 -1.63106e-18)
(25.1651 3.58318 0)
(25.1248 3.59276 -2.0089e-18)
(25.0831 3.60299 0)
(25.0399 3.61388 4.93549e-18)
(24.9951 3.62547 -5.27762e-18)
(24.9488 3.63777 -5.84069e-18)
(24.9008 3.6508 -3.30868e-18)
(24.8512 3.66459 1.75554e-18)
(24.7997 3.67915 -1.98571e-18)
(24.7465 3.69451 0)
(24.6913 3.71067 0)
(24.6341 3.72765 -1.33301e-18)
(24.5749 3.74547 2.78056e-18)
(24.5136 3.76414 1.54463e-18)
(24.45 3.78366 0)
(24.3841 3.80405 0)
(24.3158 3.8253 -2.1294e-18)
(24.245 3.84741 2.2476e-18)
(24.1715 3.87038 -1.28372e-18)
(24.0953 3.89421 5.49935e-18)
(24.0162 3.91889 3.0908e-18)
(23.9341 3.94441 4.55414e-20)
(23.8487 3.97075 -1.811e-18)
(23.7601 3.9979 -3.61945e-20)
(23.6679 4.02585 2.22407e-18)
(23.572 4.05456 -2.40009e-18)
(23.4722 4.08402 1.35769e-18)
(23.3682 4.1142 1.37494e-20)
(23.2599 4.14507 0)
(23.1469 4.1766 -1.75109e-18)
(23.029 4.20876 -1.92581e-18)
(22.9059 4.24149 2.11864e-18)
(22.7773 4.27477 -1.13209e-18)
(22.6428 4.30854 -2.59068e-18)
(22.502 4.34276 -3.64199e-20)
(22.3545 4.37735 1.60261e-18)
(22.1999 4.41227 -1.69885e-18)
(22.0376 4.44742 -9.74599e-19)
(21.8672 4.48274 3.11125e-18)
(21.688 4.51812 1.12489e-18)
(21.4993 4.55346 1.26247e-18)
(21.3006 4.58863 1.43196e-18)
(21.0909 4.62348 -1.56628e-18)
(20.8694 4.65785 0)
(20.6352 4.69153 0)
(20.3872 4.72428 -4.32591e-18)
(20.1241 4.75583 -1.20861e-18)
(19.8446 4.78584 0)
(19.5472 4.8139 0)
(19.2302 4.83953 -1.67361e-18)
(18.8916 4.86213 0)
(18.5291 4.88097 -3.15954e-18)
(18.1402 4.89515 1.15561e-18)
(17.722 4.90355 2.75679e-20)
(17.2709 4.90475 -3.75179e-18)
(16.783 4.89698 8.39069e-19)
(16.2536 4.87795 -2.9102e-18)
(15.677 4.84471 -3.34822e-18)
(15.0468 4.79342 -2.59552e-18)
(14.3548 4.71901 3.00656e-18)
(13.5916 4.61462 -3.52606e-18)
(12.7458 4.47112 2.09227e-18)
(11.8031 4.27556 2.51135e-18)
(10.7475 4.01027 -6.92499e-18)
(9.55712 3.64998 9.39406e-19)
(8.21358 3.15499 1.84553e-18)
(6.68367 2.4847 8.30386e-19)
(4.98308 1.50449 1.37308e-17)
(2.94052 0.424671 -1.63229e-17)
(25.6772 3.46773 -2.02568e-18)
(25.6625 3.47896 -2.37458e-18)
(25.6626 3.51422 -2.37194e-18)
(25.6471 3.51274 2.80822e-18)
(25.6299 3.51256 6.4325e-20)
(25.613 3.51793 0)
(25.5936 3.52238 6.21323e-20)
(25.5722 3.52616 -2.03068e-18)
(25.5493 3.53043 2.19711e-18)
(25.5251 3.53511 0)
(25.4994 3.5401 2.7847e-18)
(25.4724 3.54549 -2.93419e-18)
(25.4442 3.55132 -3.37318e-18)
(25.4147 3.55763 1.72438e-18)
(25.3841 3.56444 0)
(25.3522 3.57177 0)
(25.319 3.57965 -2.39229e-18)
(25.2847 3.58811 -2.68276e-18)
(25.249 3.59716 2.89377e-18)
(25.2121 3.60684 6.53333e-18)
(25.1738 3.61716 3.38524e-20)
(25.1342 3.62816 -3.87169e-18)
(25.0931 3.63984 -8.98326e-20)
(25.0506 3.65224 -6.98179e-20)
(25.0066 3.66539 5.34709e-20)
(24.961 3.67929 2.86871e-18)
(24.9138 3.69398 0)
(24.8648 3.70948 1.75282e-18)
(24.8142 3.72581 -3.77474e-18)
(24.7617 3.74298 -2.13404e-18)
(24.7073 3.76101 -9.28283e-20)
(24.651 3.77993 -2.07767e-20)
(24.5925 3.79975 -2.77563e-18)
(24.532 3.82048 0)
(24.4693 3.84213 0)
(24.4042 3.86472 -1.85927e-18)
(24.3367 3.88824 -1.61469e-20)
(24.2666 3.9127 0)
(24.194 3.93811 0)
(24.1185 3.96448 -2.6764e-18)
(24.0401 3.99178 -1.46973e-18)
(23.9587 4.02002 3.16396e-18)
(23.8741 4.0492 3.56552e-18)
(23.7861 4.07931 -1.93184e-18)
(23.6945 4.11033 4.26186e-18)
(23.5992 4.14225 6.47087e-20)
(23.5 4.17506 0)
(23.3966 4.20874 -1.42009e-18)
(23.2887 4.24326 3.06515e-18)
(23.1762 4.27862 3.45414e-18)
(23.0587 4.31477 -1.80437e-18)
(22.9359 4.3517 -2.07851e-18)
(22.8075 4.38937 2.28814e-18)
(22.6732 4.42775 0)
(22.5325 4.4668 -2.73052e-18)
(22.385 4.50646 0)
(22.2303 4.5467 0)
(22.0679 4.58746 0)
(21.8972 4.62866 -2.0579e-18)
(21.7176 4.67024 1.15323e-18)
(21.5284 4.7121 1.2539e-18)
(21.3289 4.75412 0)
(21.1184 4.79621 6.56335e-20)
(20.8958 4.8382 2.08124e-20)
(20.6603 4.87993 0)
(20.4107 4.92118 1.04043e-18)
(20.1458 4.96171 1.17637e-18)
(19.8641 5.00121 -2.59622e-18)
(19.5642 5.03934 0)
(19.2441 5.07562 0)
(18.9019 5.10952 0)
(18.5353 5.14036 1.01602e-18)
(18.1415 5.16727 1.13819e-18)
(17.7174 5.1892 0)
(17.2595 5.2048 -3.08985e-20)
(16.7635 5.21233 5.0474e-18)
(16.2244 5.20957 9.53957e-19)
(15.6362 5.19362 2.24105e-18)
(14.992 5.16062 -4.51232e-18)
(14.2833 5.1055 -5.08759e-20)
(13.4996 5.0213 8.82435e-19)
(12.6288 4.89863 -1.08676e-18)
(11.6551 4.72402 1.24975e-18)
(10.5611 4.47904 6.30068e-18)
(9.32238 4.13616 0)
(7.91844 3.65419 5.90824e-18)
(6.31352 2.98068 6.41683e-18)
(4.52023 1.99335 -1.12171e-17)
(2.33192 0.830113 1.03673e-17)
(25.6847 3.50072 4.00099e-18)
(25.6688 3.50232 0)
(25.6678 3.53239 2.32383e-18)
(25.6526 3.53228 5.29834e-18)
(25.6346 3.53182 -2.8058e-18)
(25.617 3.53681 -3.16441e-18)
(25.5976 3.5417 7.17059e-18)
(25.5762 3.54607 -7.79798e-18)
(25.5534 3.55095 0)
(25.5293 3.55637 2.4346e-18)
(25.504 3.56219 -2.56518e-18)
(25.4773 3.56846 0)
(25.4495 3.57525 0)
(25.4205 3.58256 0)
(25.3903 3.59042 3.79613e-18)
(25.359 3.59886 0)
(25.3264 3.6079 2.34466e-18)
(25.2926 3.61755 -2.60954e-18)
(25.2576 3.62786 -8.55297e-20)
(25.2213 3.63883 -3.05125e-18)
(25.1837 3.6505 -3.54418e-18)
(25.1448 3.66288 7.42816e-18)
(25.1045 3.67601 0)
(25.0627 3.6899 4.4565e-18)
(25.0194 3.70459 4.95481e-18)
(24.9746 3.72008 -9.17227e-20)
(24.9282 3.73642 2.93545e-18)
(24.8801 3.75361 0)
(24.8302 3.77169 0)
(24.7786 3.79067 4.03909e-18)
(24.725 3.81058 -2.06812e-18)
(24.6696 3.83143 -2.29733e-18)
(24.612 3.85324 2.60422e-18)
(24.5524 3.87603 2.86115e-18)
(24.4905 3.89981 -3.24836e-18)
(24.4263 3.9246 5.21278e-18)
(24.3596 3.95041 5.74987e-20)
(24.2905 3.97724 0)
(24.2187 4.0051 -2.28971e-18)
(24.144 4.03401 0)
(24.0665 4.06396 2.76426e-18)
(23.9859 4.09496 -6.14284e-18)
(23.9021 4.127 -1.72315e-18)
(23.8149 4.16009 -5.39305e-20)
(23.7241 4.19422 -4.14173e-18)
(23.6295 4.22939 4.48827e-18)
(23.5309 4.26558 9.67364e-20)
(23.4281 4.3028 -2.66069e-18)
(23.3209 4.34103 1.46122e-18)
(23.2089 4.38025 -1.61044e-18)
(23.0919 4.42047 1.8235e-18)
(22.9696 4.46165 -6.15403e-20)
(22.8416 4.50378 -8.65477e-20)
(22.7076 4.54683 2.36993e-18)
(22.5672 4.59079 2.68674e-18)
(22.42 4.63561 -1.50001e-18)
(22.2654 4.68127 -6.48576e-20)
(22.103 4.72772 -7.1946e-20)
(21.9322 4.77492 3.90542e-18)
(21.7524 4.82281 -1.11895e-18)
(21.5629 4.87131 -8.92031e-20)
(21.3629 4.92035 3.98425e-18)
(21.1518 4.96983 3.00453e-18)
(20.9284 5.01963 -4.95408e-18)
(20.6919 5.0696 -1.88241e-18)
(20.441 5.11959 2.00983e-18)
(20.1745 5.16936 2.30123e-18)
(19.8909 5.21866 3.44686e-20)
(19.5887 5.26716 0)
(19.2659 5.31448 -1.63842e-18)
(18.9205 5.36011 2.682e-18)
(18.55 5.40343 -9.91779e-19)
(18.1516 5.44366 0)
(17.7221 5.47979 -1.32747e-18)
(17.2577 5.51057 1.44142e-18)
(16.7539 5.53433 -3.37788e-18)
(16.2054 5.54892 -3.84005e-18)
(15.606 5.55152 4.43112e-18)
(14.9482 5.53835 5.16604e-18)
(14.2227 5.50437 -1.93651e-20)
(13.4185 5.44256 3.58444e-18)
(12.5223 5.34342 1.09904e-18)
(11.5169 5.19305 -6.46478e-18)
(10.3829 4.97235 -3.23597e-18)
(9.09319 4.65178 0)
(7.62422 4.18825 -5.52746e-18)
(5.93606 3.51823 -8.93993e-18)
(4.02474 2.53299 1.45551e-17)
(1.70148 1.28558 0)
(25.6908 3.52781 0)
(25.6738 3.52412 0)
(25.6722 3.54993 0)
(25.6573 3.55089 -2.54911e-18)
(25.6389 3.55049 -2.90306e-18)
(25.6211 3.55525 3.05818e-18)
(25.6018 3.56052 -6.3895e-20)
(25.5805 3.56547 -3.74769e-18)
(25.5579 3.57097 -4.12565e-18)
(25.5341 3.57711 0)
(25.5091 3.58374 -4.99078e-18)
(25.4829 3.5909 0)
(25.4555 3.59861 3.01742e-18)
(25.427 3.60692 0)
(25.3974 3.61582 -3.7316e-18)
(25.3666 3.62535 4.14919e-18)
(25.3347 3.63552 3.50765e-20)
(25.3015 3.64637 0)
(25.2672 3.6579 2.66372e-18)
(25.2316 3.67016 -2.9592e-18)
(25.1947 3.68315 -1.02964e-19)
(25.1565 3.69691 -3.538e-18)
(25.117 3.71146 3.88881e-18)
(25.076 3.72683 -8.65604e-18)
(25.0335 3.74304 -2.40842e-18)
(24.9895 3.76011 2.53574e-20)
(24.944 3.77808 -2.81853e-18)
(24.8967 3.79695 0)
(24.8478 3.81677 3.54703e-18)
(24.797 3.83755 -3.60962e-18)
(24.7444 3.85932 -1.98973e-18)
(24.6899 3.88209 4.60491e-18)
(24.6333 3.90589 -5.14647e-18)
(24.5746 3.93074 -2.92734e-18)
(24.5136 3.95665 -1.2308e-19)
(24.4504 3.98365 6.60784e-18)
(24.3847 4.01174 0)
(24.3165 4.04095 0)
(24.2456 4.07128 -2.02053e-20)
(24.1719 4.10274 -1.5219e-20)
(24.0953 4.13535 -2.72147e-18)
(24.0156 4.16912 -2.72614e-20)
(23.9327 4.20404 -1.6796e-18)
(23.8464 4.24014 3.45852e-18)
(23.7564 4.2774 1.92761e-18)
(23.6627 4.31584 0)
(23.5649 4.35545 0)
(23.4629 4.39625 2.66937e-18)
(23.3565 4.43822 -5.73328e-18)
(23.2452 4.48136 0)
(23.1289 4.52567 -5.23185e-18)
(23.0072 4.57116 -2.01882e-18)
(22.8798 4.61779 2.07943e-18)
(22.7464 4.66558 0)
(22.6064 4.71451 2.55121e-18)
(22.4596 4.76456 -1.45373e-18)
(22.3053 4.81572 3.14872e-18)
(22.1431 4.86795 -5.14658e-18)
(21.9725 4.92124 -3.67338e-20)
(21.7927 4.97553 0)
(21.6032 5.0308 -2.3801e-18)
(21.403 5.08698 -2.6395e-18)
(21.1915 5.14399 1.48508e-18)
(20.9676 5.20176 2.21588e-20)
(20.7303 5.26016 1.76206e-18)
(20.4785 5.31907 -4.03536e-18)
(20.2108 5.3783 1.04773e-18)
(19.9257 5.43765 2.54301e-18)
(19.6216 5.49684 -1.37204e-18)
(19.2965 5.55552 0)
(18.9482 5.61326 3.51111e-18)
(18.5743 5.66952 3.96144e-18)
(18.1718 5.72357 0)
(17.7373 5.77452 -1.31245e-18)
(17.2668 5.82115 2.37189e-20)
(16.7557 5.86194 -4.95082e-18)
(16.1984 5.89483 2.87349e-18)
(15.5881 5.91712 2.18025e-18)
(14.917 5.92513 -1.03385e-17)
(14.1752 5.91388 -1.56704e-18)
(13.3507 5.87639 -9.27564e-19)
(12.429 5.80308 -4.38598e-18)
(11.3915 5.6797 5.269e-18)
(10.2165 5.48658 -5.88795e-18)
(8.87348 5.19227 1.05738e-18)
(7.33561 4.75143 0)
(5.55376 4.09277 0)
(3.48944 3.11802 1.9961e-18)
(1.07091 1.76409 -7.24567e-18)
(25.6956 3.55034 0)
(25.6777 3.54389 0)
(25.6758 3.56627 0)
(25.6615 3.56829 2.01687e-19)
(25.6432 3.56829 -2.70238e-18)
(25.6253 3.57301 6.05152e-18)
(25.6061 3.57869 -6.60886e-18)
(25.5851 3.58425 1.10524e-17)
(25.5628 3.59039 1.25542e-19)
(25.5394 3.59725 0)
(25.5148 3.6047 4.92007e-18)
(25.489 3.61272 2.73438e-18)
(25.4622 3.62137 -5.85656e-18)
(25.4343 3.63065 0)
(25.4052 3.64058 3.63199e-18)
(25.3751 3.65119 -3.82798e-18)
(25.3438 3.66248 4.16909e-20)
(25.3113 3.6745 -4.62552e-18)
(25.2777 3.68725 2.43273e-20)
(25.2429 3.70077 9.28967e-20)
(25.2068 3.71507 -1.12026e-19)
(25.1694 3.73019 6.86512e-18)
(25.1306 3.74615 -1.0215e-19)
(25.0905 3.76297 8.31821e-18)
(25.0489 3.78069 0)
(25.0058 3.79932 0)
(24.9612 3.8189 0)
(24.9149 3.83944 0)
(24.8669 3.86099 -6.69678e-18)
(24.8171 3.88356 7.30984e-18)
(24.7655 3.90717 8.08749e-18)
(24.7119 3.93186 -2.22037e-18)
(24.6563 3.95764 -4.88339e-18)
(24.5986 3.98454 2.62226e-18)
(24.5387 4.01257 0)
(24.4765 4.04178 -9.75234e-18)
(24.4119 4.07215 -3.64159e-18)
(24.3447 4.10373 -1.99236e-20)
(24.2749 4.13653 0)
(24.2022 4.17056 6.27738e-20)
(24.1267 4.20584 0)
(24.048 4.24239 -2.90767e-18)
(23.9661 4.28021 6.24388e-18)
(23.8808 4.31932 -3.48737e-18)
(23.7918 4.35974 -1.93414e-18)
(23.699 4.40147 -8.28765e-20)
(23.6022 4.44453 2.25085e-18)
(23.5012 4.48893 0)
(23.3956 4.53467 -2.74569e-18)
(23.2852 4.58176 0)
(23.1697 4.63021 6.74896e-18)
(23.0489 4.68003 -1.9002e-18)
(22.9223 4.73123 2.01363e-18)
(22.7895 4.7838 2.31305e-18)
(22.6503 4.83775 -4.89834e-18)
(22.504 4.89308 -2.71006e-18)
(22.3504 4.9498 0)
(22.1887 5.00788 3.414e-18)
(22.0185 5.06734 -1.88957e-18)
(21.839 5.12814 0)
(21.6497 5.19027 -2.27418e-18)
(21.4497 5.25369 0)
(21.2381 5.31837 0)
(21.0141 5.38424 -1.61359e-18)
(20.7764 5.45124 3.52139e-18)
(20.5241 5.51925 2.06373e-18)
(20.2556 5.58816 9.51765e-20)
(19.9694 5.65779 7.08652e-20)
(19.6639 5.72794 0)
(19.337 5.7983 0)
(18.9865 5.86854 -5.18538e-18)
(18.6098 5.93815 -3.87917e-18)
(18.2039 6.00653 -6.61245e-18)
(17.7651 6.07286 -1.3012e-18)
(17.2894 6.13606 4.33488e-18)
(16.7718 6.19472 3.3452e-18)
(16.2066 6.24692 9.83361e-19)
(15.5865 6.2901 -5.55927e-18)
(14.9032 6.32074 5.22786e-18)
(14.1461 6.334 0)
(13.3025 6.32302 -3.64144e-18)
(12.3566 6.27825 6.73485e-18)
(11.2878 6.18525 -2.67211e-18)
(10.0726 6.02399 6.96655e-18)
(8.67606 5.76138 0)
(7.06833 5.35051 0)
(5.18428 4.71815 1.27778e-18)
(2.96814 3.75941 -2.5651e-18)
(0.487987 2.26857 -3.38634e-18)
(25.7002 3.56914 0)
(25.6814 3.56163 0)
(25.6792 3.58132 -4.29071e-18)
(25.6654 3.58441 9.73138e-18)
(25.6473 3.58509 -1.0569e-17)
(25.6295 3.58997 -5.80032e-18)
(25.6106 3.5961 -3.28802e-18)
(25.5899 3.60232 3.50422e-18)
(25.568 3.60914 1.64665e-19)
(25.545 3.61674 -8.5545e-18)
(25.5209 3.625 -3.11063e-20)
(25.4957 3.63389 -5.08882e-18)
(25.4695 3.64346 -2.69371e-18)
(25.4422 3.65371 1.80311e-20)
(25.4138 3.66466 1.23834e-19)
(25.3843 3.67633 -7.52919e-18)
(25.3537 3.68874 8.12309e-18)
(25.322 3.70191 1.66279e-19)
(25.2892 3.71586 -2.34211e-18)
(25.2552 3.73062 -8.09082e-18)
(25.2199 3.74622 -3.05612e-18)
(25.1834 3.76268 -3.26214e-18)
(25.1455 3.78002 -3.6919e-18)
(25.1063 3.79828 2.9759e-20)
(25.0656 3.81749 -1.31322e-17)
(25.0235 3.83766 7.20609e-18)
(24.9798 3.85883 -5.2181e-18)
(24.9345 3.88103 -1.07839e-19)
(24.8875 3.90429 -3.55877e-20)
(24.8388 3.92862 7.05629e-18)
(24.7882 3.95407 -7.72883e-18)
(24.7357 3.98066 -4.319e-18)
(24.6812 4.00841 9.37081e-18)
(24.6246 4.03735 -2.52194e-18)
(24.5658 4.06751 -5.67007e-18)
(24.5047 4.0989 6.19889e-18)
(24.4412 4.13157 3.4641e-18)
(24.3751 4.16552 3.80798e-18)
(24.3064 4.20078 -4.06612e-18)
(24.2349 4.23738 2.3014e-18)
(24.1605 4.27533 0)
(24.083 4.31466 9.8197e-20)
(24.0022 4.35539 -2.96242e-18)
(23.918 4.39753 3.27438e-18)
(23.8302 4.44112 1.86671e-18)
(23.7385 4.48616 -4.0291e-18)
(23.6428 4.53268 2.17385e-18)
(23.5428 4.58069 2.49206e-18)
(23.4383 4.63022 -2.65983e-18)
(23.329 4.68128 2.90729e-18)
(23.2145 4.7339 -6.53263e-18)
(23.0947 4.78809 1.84072e-18)
(22.969 4.84387 -1.95117e-18)
(22.8373 4.90127 -2.24352e-18)
(22.6989 4.96029 7.31521e-18)
(22.5535 5.02095 -5.2802e-18)
(22.4007 5.08328 -1.51632e-18)
(22.2397 5.14728 -1.63456e-18)
(22.0702 5.21296 1.86056e-18)
(21.8914 5.28034 -8.03274e-18)
(21.7026 5.34942 4.46285e-18)
(21.5031 5.42018 -2.54629e-18)
(21.2918 5.49263 4.03815e-18)
(21.068 5.56674 4.56365e-18)
(20.8304 5.64247 0)
(20.5779 5.71976 0)
(20.3091 5.79853 2.2012e-18)
(20.0224 5.87868 -2.36134e-18)
(19.7161 5.96004 2.68083e-18)
(19.388 6.04239 0)
(19.0359 6.12546 6.37501e-20)
(18.6571 6.20885 -3.8568e-18)
(18.2484 6.29204 -1.05493e-18)
(17.8063 6.37435 1.23138e-18)
(17.3262 6.45482 0)
(16.8032 6.53219 4.98427e-18)
(16.231 6.60473 -1.87117e-18)
(15.6024 6.67005 1.14472e-18)
(14.9081 6.72487 -2.62103e-18)
(14.1372 6.76457 1.51308e-18)
(13.2759 6.78251 3.74231e-18)
(12.3072 6.76936 0)
(11.2088 6.71069 0)
(9.9546 6.58644 7.21006e-18)
(8.50556 6.36229 -9.6756e-18)
(6.82843 5.99184 0)
(4.83511 5.3998 0)
(2.51963 4.44811 -2.65841e-17)
(-0.153286 2.87425 -2.9903e-17)
(25.7045 3.58489 3.58862e-18)
(25.6851 3.5775 -9.02413e-21)
(25.6823 3.59504 -4.27257e-18)
(25.6692 3.5992 0)
(25.6514 3.60078 -5.29462e-18)
(25.6338 3.60602 1.13277e-17)
(25.6152 3.61269 -6.15419e-18)
(25.595 3.6196 1.19958e-19)
(25.5736 3.62715 -3.68419e-18)
(25.5511 3.6355 0)
(25.5276 3.64458 4.59229e-18)
(25.503 3.65436 5.04465e-18)
(25.4774 3.66484 -2.63292e-18)
(25.4507 3.67606 2.74252e-18)
(25.423 3.68802 6.57629e-18)
(25.3943 3.70074 -7.26435e-18)
(25.3645 3.71424 3.77798e-18)
(25.3336 3.72855 4.43612e-18)
(25.3016 3.74369 0)
(25.2684 3.75968 1.05471e-17)
(25.234 3.77655 -5.81296e-18)
(25.1984 3.79432 9.49022e-18)
(25.1615 3.81304 0)
(25.1232 3.83272 -3.92988e-18)
(25.0836 3.85339 4.11891e-18)
(25.0424 3.87509 4.55471e-18)
(24.9998 3.89783 2.59272e-18)
(24.9555 3.92167 -2.84936e-18)
(24.9096 3.94661 3.13188e-18)
(24.862 3.97271 0)
(24.8125 3.99998 3.66256e-18)
(24.7612 4.02845 -1.55814e-19)
(24.7078 4.05815 1.96981e-18)
(24.6524 4.08912 -1.00462e-19)
(24.5948 4.12139 8.20552e-18)
(24.5349 4.15497 1.21037e-19)
(24.4726 4.18991 1.32901e-19)
(24.4077 4.22623 -7.10044e-18)
(24.3403 4.26396 4.0358e-18)
(24.27 4.30312 -2.23225e-18)
(24.1968 4.34374 -9.68495e-20)
(24.1205 4.38586 5.28058e-18)
(24.041 4.4295 -2.97298e-18)
(23.958 4.47468 -3.26271e-18)
(23.8714 4.52144 -1.29767e-19)
(23.781 4.5698 9.61985e-18)
(23.6865 4.61979 -4.28429e-18)
(23.5878 4.67143 2.31286e-18)
(23.4845 4.72477 0)
(23.3764 4.77983 -2.82358e-18)
(23.2631 4.83664 6.32107e-18)
(23.1444 4.89523 1.78246e-18)
(23.0199 4.95562 -3.71987e-18)
(22.8893 5.01787 -2.08791e-18)
(22.752 5.082 0)
(22.6077 5.14804 2.63781e-18)
(22.4559 5.21603 1.02538e-19)
(22.296 5.286 1.02822e-19)
(22.1274 5.35798 0)
(21.9495 5.43201 7.85787e-18)
(21.7615 5.50813 0)
(21.5626 5.58633 2.39756e-18)
(21.3521 5.66666 -2.73541e-18)
(21.1288 5.74912 -3.0491e-18)
(20.8916 5.83374 -1.60325e-18)
(20.6393 5.92047 -1.84316e-18)
(20.3706 6.0093 0)
(20.0837 6.10018 0)
(19.7769 6.19302 -2.68787e-18)
(19.4481 6.28767 -1.53573e-18)
(19.0949 6.38394 1.72833e-18)
(18.7146 6.48153 3.87838e-18)
(18.3038 6.58005 6.64913e-18)
(17.8587 6.67893 -2.43811e-18)
(17.375 6.7774 2.83102e-18)
(16.8472 6.87436 -6.0153e-20)
(16.2689 6.96831 3.78489e-18)
(15.6323 7.0571 0)
(14.9279 7.13774 0)
(14.1439 7.20594 -6.20358e-18)
(13.2656 7.25541 1.94168e-18)
(12.2747 7.27724 1.14712e-18)
(11.1468 7.25727 1.42071e-18)
(9.85329 7.17583 -5.67508e-18)
(8.35042 6.99806 -2.4104e-18)
(6.60071 6.68066 1.34596e-17)
(4.49359 6.13506 -2.29064e-17)
(2.08761 5.19844 -2.83061e-18)
(-0.878505 3.59072 1.93386e-19)
(25.7088 3.59813 2.81604e-18)
(25.6888 3.59163 0)
(25.6854 3.60751 4.18053e-18)
(25.6729 3.61271 0)
(25.6556 3.61534 5.14427e-18)
(25.6382 3.62111 -5.4196e-18)
(25.6201 3.62839 3.03305e-18)
(25.6004 3.63605 6.72404e-18)
(25.5795 3.64436 -7.27626e-18)
(25.5576 3.6535 -1.61007e-19)
(25.5347 3.66342 4.29095e-18)
(25.5107 3.67407 0)
(25.4858 3.68548 5.35102e-18)
(25.4599 3.69765 -5.87571e-18)
(25.433 3.71061 -6.36683e-18)
(25.405 3.72437 3.40043e-18)
(25.376 3.73896 -1.36739e-19)
(25.346 3.75439 0)
(25.3149 3.77069 -4.53975e-18)
(25.2826 3.78789 -1.01472e-17)
(25.2492 3.80602 2.83492e-18)
(25.2145 3.8251 -6.12421e-18)
(25.1786 3.84516 -3.30573e-18)
(25.1413 3.86623 0)
(25.1027 3.88835 3.9912e-18)
(25.0627 3.91155 4.38594e-18)
(25.0211 3.93586 0)
(24.978 3.9613 0)
(24.9332 3.98792 0)
(24.8868 4.01575 1.28968e-19)
(24.8385 4.04482 -3.49697e-18)
(24.7883 4.07516 -7.86648e-18)
(24.7362 4.10681 -4.40283e-18)
(24.682 4.13979 4.67374e-18)
(24.6257 4.17415 -2.56981e-18)
(24.567 4.20992 -2.826e-18)
(24.506 4.24712 3.23181e-18)
(24.4425 4.28579 2.61071e-19)
(24.3763 4.32598 -3.75506e-18)
(24.3074 4.3677 -6.28961e-18)
(24.2355 4.41099 2.27318e-18)
(24.1606 4.4559 0)
(24.0824 4.50244 -2.868e-18)
(24.0008 4.55066 3.13544e-18)
(23.9156 4.6006 -3.46017e-18)
(23.8265 4.65228 -3.81161e-18)
(23.7334 4.70575 -4.0662e-18)
(23.636 4.76104 0)
(23.5341 4.8182 -2.47279e-18)
(23.4273 4.87726 2.816e-18)
(23.3155 4.93827 -9.52955e-20)
(23.1981 5.00128 0)
(23.075 5.06632 1.88263e-18)
(22.9456 5.13345 4.13558e-18)
(22.8097 5.20271 -4.5755e-18)
(22.6667 5.27416 2.48008e-18)
(22.5161 5.34785 5.70618e-18)
(22.3574 5.42383 -6.10743e-18)
(22.19 5.50216 0)
(22.0132 5.5829 -3.8819e-18)
(21.8263 5.6661 -4.19863e-18)
(21.6285 5.75182 -2.40153e-18)
(21.4189 5.84012 -2.70271e-18)
(21.1964 5.93104 1.37995e-18)
(20.96 6.02464 4.9503e-18)
(20.7083 6.12095 -1.8881e-18)
(20.44 6.21999 6.10867e-18)
(20.1534 6.32177 -2.38021e-18)
(19.8467 6.42629 3.90228e-18)
(19.5176 6.53346 1.47243e-18)
(19.1638 6.64319 3.38193e-18)
(18.7824 6.75531 0)
(18.3701 6.86954 2.21879e-18)
(17.9229 6.98546 -1.14974e-18)
(17.4362 7.10247 -5.72257e-18)
(16.9043 7.21969 -1.50881e-19)
(16.3207 7.33583 -3.95533e-18)
(15.6772 7.44908 1.03529e-18)
(14.9636 7.55673 2.65355e-18)
(14.1675 7.65494 1.11196e-17)
(13.2733 7.73785 -1.97966e-18)
(12.2612 7.79707 -1.19144e-17)
(11.1046 7.81892 -5.99987e-18)
(9.77253 7.78433 7.93309e-18)
(8.21548 7.65857 2.24866e-17)
(6.39073 7.40064 -1.7808e-17)
(4.17854 6.89647 3.25737e-17)
(1.66207 6.0002 -1.90749e-18)
(-1.61835 4.39247 2.77659e-17)
(25.7129 3.60924 5.64763e-18)
(25.6927 3.60419 3.97253e-18)
(25.6886 3.61879 4.04056e-18)
(25.6766 3.62501 0)
(25.6598 3.6288 0)
(25.6428 3.63523 0)
(25.6252 3.64318 5.97669e-18)
(25.6061 3.65163 -3.04331e-18)
(25.5858 3.66075 3.45798e-18)
(25.5645 3.6707 -3.93293e-18)
(25.5422 3.68147 4.14446e-18)
(25.519 3.69301 4.72991e-18)
(25.4948 3.70533 -4.98472e-18)
(25.4697 3.71846 0)
(25.4436 3.73241 2.99125e-18)
(25.4165 3.7472 -2.44709e-21)
(25.3884 3.76285 -3.61794e-18)
(25.3592 3.77939 -3.97209e-18)
(25.329 3.79683 4.52586e-18)
(25.2977 3.81522 1.81929e-19)
(25.2653 3.83458 2.73955e-18)
(25.2317 3.85494 1.11302e-19)
(25.1968 3.87633 3.29626e-18)
(25.1606 3.89878 -3.48705e-18)
(25.1231 3.92232 -7.97185e-18)
(25.0842 3.947 4.04705e-18)
(25.0438 3.97284 4.82087e-18)
(25.0019 3.99988 -7.52165e-18)
(24.9583 4.02815 -2.79515e-18)
(24.9131 4.05769 3.19182e-18)
(24.866 4.08854 -3.37743e-18)
(24.8172 4.12072 1.55384e-19)
(24.7663 4.15429 -4.08349e-18)
(24.7135 4.18927 -9.15388e-18)
(24.6585 4.2257 2.56436e-18)
(24.6012 4.26363 -8.41416e-21)
(24.5416 4.30308 -1.24089e-19)
(24.4794 4.3441 9.98783e-18)
(24.4147 4.38673 3.76744e-18)
(24.3472 4.431 2.22474e-18)
(24.2768 4.47695 -2.19125e-18)
(24.2033 4.52462 0)
(24.1266 4.57407 2.76747e-18)
(24.0465 4.62532 1.10053e-19)
(23.9628 4.67842 3.22834e-18)
(23.8752 4.73342 3.70313e-18)
(23.7836 4.79036 -3.77896e-18)
(23.6878 4.8493 0)
(23.5874 4.91027 -1.17085e-20)
(23.4821 4.97334 -1.10515e-19)
(23.3718 5.03856 -3.13777e-18)
(23.256 5.10598 6.56397e-18)
(23.1344 5.17566 8.90326e-21)
(23.0066 5.24768 -3.94227e-18)
(22.8721 5.32208 -2.09645e-18)
(22.7307 5.39895 -4.82943e-18)
(22.5816 5.47835 2.68219e-18)
(22.4244 5.56036 -2.17729e-20)
(22.2585 5.64506 6.60047e-18)
(22.0831 5.73253 -1.91072e-18)
(21.8977 5.82285 6.25695e-18)
(21.7012 5.91612 0)
(21.4929 6.01243 0)
(21.2718 6.11187 0)
(21.0365 6.21451 -3.18348e-18)
(20.786 6.32047 0)
(20.5187 6.42981 -4.12145e-18)
(20.2329 6.54261 4.51067e-18)
(19.9268 6.65892 -1.32181e-18)
(19.5982 6.77877 -1.52766e-18)
(19.2446 6.90217 -1.69533e-18)
(18.863 7.02906 3.62203e-18)
(18.45 7.15928 2.09957e-18)
(18.0017 7.29258 4.86037e-18)
(17.5131 7.42856 0)
(16.9786 7.56656 -3.3247e-18)
(16.3911 7.70559 -1.97005e-18)
(15.7422 7.84412 2.20081e-18)
(15.0213 7.97988 -1.37756e-18)
(14.2154 8.10948 -4.94028e-18)
(13.3077 8.22763 0)
(12.2773 8.32662 2.07554e-19)
(11.0954 8.39347 4.76148e-18)
(9.72847 8.41017 -1.27668e-17)
(8.11986 8.34263 -1.70891e-17)
(6.22301 8.14755 -2.05367e-17)
(3.89378 7.70324 2.7069e-17)
(1.24661 6.88033 -2.26556e-17)
(-2.35303 5.2851 -1.03902e-17)
(25.7169 3.61856 3.38948e-18)
(25.6968 3.6153 -1.16768e-17)
(25.692 3.62898 -4.03761e-18)
(25.6804 3.63618 0)
(25.6642 3.64117 0)
(25.6476 3.64838 -5.12839e-18)
(25.6305 3.65707 -1.13778e-17)
(25.612 3.66634 6.10106e-18)
(25.5923 3.67628 -3.45569e-18)
(25.5717 3.68708 0)
(25.5502 3.6987 4.00082e-18)
(25.5278 3.71112 0)
(25.5044 3.72436 0)
(25.4801 3.73844 0)
(25.4548 3.75337 -3.00185e-18)
(25.4286 3.76917 6.46224e-18)
(25.4014 3.78587 3.61634e-18)
(25.3733 3.8035 -7.26085e-21)
(25.3441 3.82208 8.5606e-18)
(25.3138 3.84163 -4.41441e-18)
(25.2824 3.8622 2.63354e-18)
(25.2498 3.88382 -8.44215e-18)
(25.2161 3.9065 -1.27186e-19)
(25.181 3.9303 6.83734e-18)
(25.1447 3.95525 -3.83607e-18)
(25.107 3.98138 -8.41793e-18)
(25.0678 4.00873 1.35179e-17)
(25.0271 4.03733 1.97761e-19)
(24.9848 4.06723 2.79859e-18)
(24.9409 4.09846 -5.90079e-18)
(24.8952 4.13106 3.37827e-18)
(24.8477 4.16507 3.71446e-18)
(24.7982 4.20053 0)
(24.7468 4.23749 6.74199e-18)
(24.6932 4.27598 -7.11784e-18)
(24.6374 4.31604 -2.60904e-18)
(24.5792 4.35772 2.99528e-18)
(24.5186 4.40107 -3.15903e-18)
(24.4553 4.44611 -3.48332e-18)
(24.3894 4.49291 -3.83036e-18)
(24.3205 4.5415 2.19973e-18)
(24.2486 4.59193 -2.32586e-18)
(24.1735 4.64426 -1.09176e-19)
(24.095 4.69853 2.8241e-18)
(24.0129 4.75478 -6.34735e-18)
(23.927 4.81309 3.43237e-18)
(23.8371 4.87349 3.93529e-18)
(23.7429 4.93605 6.3588e-18)
(23.6442 5.00084 -4.61601e-18)
(23.5407 5.0679 2.65695e-18)
(23.4321 5.13731 -5.63647e-18)
(23.318 5.20914 3.11818e-18)
(23.1981 5.28347 -3.57815e-18)
(23.0721 5.36036 5.9507e-18)
(22.9394 5.43991 6.94253e-20)
(22.7997 5.52219 -1.73349e-20)