/*--------------------------------*- C++ -*----------------------------------*\
  =========                 |
  \\      /  F ield         | OpenFOAM: The Open Source CFD Toolbox
   \\    /   O peration     | Website:  https://openfoam.org
    \\  /    A nd           | Version:  11
     \\/     M anipulation  |
\*---------------------------------------------------------------------------*/
FoamFile
{
    format      ascii;
    class       volScalarField;
    location    "200";
    object      p;
}
// * * * * * * * * * * * * * * * * * * * * * * * * * * * * * * * * * * * * * //

dimensions      [0 2 -2 0 0 0 0];

internalField   nonuniform List<scalar> 
31595
(
0.188377
0.101916
0.151605
0.145361
0.168725
0.172326
0.190669
0.19942
0.214725
0.22612
0.240401
0.253136
0.26721
0.280768
0.294991
0.309126
0.323631
0.338206
0.35301
0.367915
0.382959
0.398077
0.413256
0.428446
0.443616
0.458717
0.473708
0.488539
0.503163
0.51753
0.531595
0.54531
0.558637
0.571539
0.583986
0.595957
0.607444
0.618444
0.628972
0.639053
0.648729
0.658058
0.667113
0.675985
0.68478
0.693618
0.702642
0.712002
0.721868
0.732421
0.743855
0.756375
0.770194
0.785538
0.802636
0.821727
0.843051
0.866858
0.893392
0.922905
0.955645
0.991856
1.03178
1.07564
1.12366
1.17602
1.23291
1.29444
1.36069
1.43168
1.5073
1.58737
1.67144
1.75903
1.8489
1.94043
2.02992
2.11866
2.1936
2.26929
2.29491
2.3481
2.2347
2.27158
1.79839
1.84486
0.559283
0.550137
-2.63353
0.151765
0.121949
0.136616
0.15112
0.16428
0.174646
0.188215
0.200036
0.21304
0.225585
0.238767
0.251857
0.265348
0.278934
0.29281
0.306852
0.321129
0.335585
0.350235
0.365047
0.380009
0.395092
0.410273
0.425518
0.440798
0.45608
0.471326
0.486499
0.501563
0.516483
0.531224
0.545752
0.56004
0.574067
0.587818
0.601284
0.614468
0.627384
0.640054
0.652517
0.664825
0.677044
0.689256
0.701559
0.714064
0.726899
0.740209
0.754152
0.768899
0.784638
0.801566
0.819894
0.839842
0.861642
0.885534
0.911766
0.940591
0.972274
1.00708
1.04527
1.08712
1.13291
1.1829
1.23735
1.29652
1.36064
1.42993
1.50456
1.58469
1.67038
1.76161
1.85827
1.96002
2.06644
2.17646
2.28942
2.40206
2.51506
2.61675
2.7194
2.77571
2.85815
2.77658
2.84809
2.38981
2.4941
1.16213
1.23791
-1.97199
0.138507
0.127698
0.132906
0.15133
0.163336
0.174746
0.187168
0.199507
0.21187
0.224449
0.237228
0.250204
0.2634
0.276822
0.290471
0.304347
0.318447
0.332765
0.347292
0.362014
0.376916
0.391981
0.407187
0.422512
0.43793
0.453417
0.468946
0.48449
0.500023
0.51552
0.530957
0.546316
0.561582
0.576744
0.591801
0.606756
0.621625
0.636431
0.651211
0.666014
0.6809
0.695945
0.711238
0.726885
0.743004
0.759729
0.777211
0.795612
0.81511
0.835896
0.858175
0.882165
0.908092
0.936198
0.96673
0.99995
1.03613
1.07554
1.11847
1.1652
1.21604
1.27128
1.33122
1.39616
1.4664
1.54221
1.62387
1.7116
1.80563
1.90609
2.01306
2.12651
2.24621
2.37184
2.50251
2.63756
2.7742
2.91257
3.04251
3.17371
3.26376
3.37683
3.33439
3.43886
3.01221
3.16587
1.80277
1.91252
-1.49847
0.136836
0.130383
0.132878
0.150699
0.16327
0.174358
0.186428
0.19859
0.210705
0.223025
0.235555
0.248298
0.261265
0.274474
0.287926
0.301623
0.315565
0.329749
0.344168
0.358816
0.373679
0.388746
0.404002
0.41943
0.435013
0.450733
0.466572
0.482513
0.49854
0.514637
0.530792
0.546999
0.563253
0.579554
0.595913
0.612348
0.628882
0.64555
0.6624
0.67949
0.696891
0.714687
0.732976
0.751869
0.771493
0.791989
0.813512
0.836233
0.860335
0.886015
0.913487
0.942972
0.97471
1.00895
1.04595
1.08599
1.12935
1.17632
1.2272
1.28232
1.34199
1.40654
1.4763
1.55161
1.63282
1.72024
1.8142
1.91501
2.02295
2.13823
2.26104
2.39145
2.52934
2.67453
2.82632
2.98412
3.14554
3.31041
3.4699
3.63145
3.75765
3.90364
3.90588
4.04374
3.66254
3.86089
2.47802
2.6043
-1.11225
0.137598
0.133641
0.133844
0.150533
0.163325
0.174035
0.185662
0.19755
0.209391
0.22142
0.233683
0.246175
0.258906
0.271896
0.285148
0.298667
0.312454
0.32651
0.34083
0.355411
0.370247
0.385329
0.40065
0.416198
0.431962
0.447932
0.464099
0.480452
0.496986
0.513693
0.530575
0.547632
0.564872
0.582307
0.599956
0.617846
0.636016
0.654508
0.673381
0.692702
0.71255
0.733018
0.754214
0.776254
0.799275
0.823423
0.848862
0.875767
0.904329
0.934754
0.967262
1.00209
1.03947
1.07968
1.12298
1.16966
1.22003
1.27439
1.33308
1.39642
1.46477
1.53848
1.61793
1.70348
1.79554
1.89448
2.00068
2.11453
2.23636
2.3665
2.50523
2.65272
2.80903
2.97408
3.1474
3.3285
3.5154
3.70771
3.89789
4.09139
4.25558
4.43677
4.48742
4.66002
4.33393
4.5729
3.18357
3.43706
-0.313111
0.139399
0.137248
0.135437
0.150701
0.163438
0.173729
0.184842
0.196376
0.20791
0.219621
0.231594
0.243819
0.256305
0.269068
0.282117
0.295456
0.30909
0.323019
0.337245
0.351768
0.366584
0.381692
0.397086
0.412764
0.428719
0.44495
0.461452
0.478226
0.495272
0.512595
0.530202
0.548107
0.566324
0.584875
0.603792
0.623111
0.642878
0.663149
0.683989
0.705476
0.727697
0.750754
0.774762
0.799846
0.82615
0.853827
0.883048
0.913997
0.946871
0.981886
1.01927
1.05926
1.10212
1.14812
1.19754
1.25069
1.30789
1.36946
1.43576
1.50714
1.58399
1.6667
1.75566
1.85131
1.95408
2.06441
2.18273
2.30952
2.44518
2.59015
2.7448
2.90946
3.08431
3.26945
3.46459
3.66943
3.88239
4.10302
4.32488
4.55191
4.75579
4.97481
5.07724
5.28755
5.02558
5.30252
3.93415
4.35496
0.527468
0.141192
0.140781
0.137329
0.151044
0.163512
0.173374
0.183922
0.195043
0.206233
0.217606
0.229268
0.241212
0.253439
0.265968
0.278808
0.291964
0.305441
0.319245
0.333378
0.347843
0.362644
0.37778
0.393253
0.409064
0.425214
0.441708
0.458547
0.475741
0.493297
0.511229
0.529553
0.548289
0.567463
0.587108
0.607261
0.62797
0.649289
0.671284
0.694029
0.717609
0.742122
0.767676
0.794395
0.822413
0.851879
0.882955
0.91582
0.950664
0.987695
1.02713
1.06922
1.1142
1.16235
1.21395
1.2693
1.32872
1.39254
1.46112
1.53482
1.61404
1.69918
1.79066
1.88894
1.99448
2.10776
2.22927
2.35955
2.4991
2.64845
2.80812
2.97861
3.16036
3.35376
3.55905
3.77619
4.00508
4.24456
4.49421
4.74869
5.01075
5.25606
5.51588
5.67359
5.9264
5.7379
6.0553
4.73832
5.26733
1.08644
0.142717
0.143941
0.139278
0.151406
0.163454
0.172883
0.182848
0.193512
0.20433
0.215348
0.22668
0.238328
0.250288
0.262573
0.275197
0.288165
0.301483
0.315158
0.329196
0.343603
0.358386
0.373549
0.389099
0.405041
0.421384
0.438137
0.455309
0.472916
0.490973
0.509501
0.528524
0.54807
0.568175
0.58888
0.61023
0.632283
0.655101
0.678758
0.703337
0.728933
0.755649
0.783604
0.812927
0.843762
0.876264
0.910605
0.946969
0.985556
1.02658
1.07028
1.11689
1.16667
1.21992
1.27692
1.338
1.40347
1.47371
1.54907
1.62995
1.71678
1.80998
1.91001
2.01736
2.13256
2.25612
2.3886
2.53059
2.68271
2.84554
3.01973
3.2059
3.40464
3.61649
3.84192
4.08114
4.33427
4.6006
4.87984
5.16769
5.46609
5.75434
6.05769
6.2738
6.57375
6.46712
6.82889
5.59557
6.19023
1.57358
0.1438
0.146522
0.141072
0.151655
0.163173
0.172174
0.181563
0.19174
0.202164
0.212815
0.223805
0.235145
0.246826
0.258861
0.271261
0.284034
0.297188
0.31073
0.324669
0.339014
0.353774
0.36896
0.384582
0.40065
0.417179
0.434182
0.451678
0.469685
0.488226
0.50733
0.527029
0.547358
0.56836
0.590085
0.612589
0.635934
0.660193
0.685446
0.711786
0.739314
0.768143
0.798398
0.830217
0.863751
0.899163
0.936633
0.976352
1.01853
1.06339
1.11117
1.16213
1.21655
1.2747
1.33691
1.40351
1.47484
1.55127
1.63321
1.72105
1.81527
1.91631
2.02467
2.14088
2.26551
2.39914
2.54237
2.69588
2.86035
3.0365
3.22505
3.42677
3.64239
3.87264
4.11819
4.37954
4.65707
4.9505
5.2598
5.58163
5.91742
6.24977
6.59878
6.87554
7.22611
7.2072
7.61449
6.48484
7.13569
2.62254
0.144383
0.148419
0.142554
0.151684
0.162593
0.171175
0.180005
0.189681
0.199697
0.209972
0.220611
0.231633
0.243028
0.254804
0.266972
0.279543
0.292524
0.305926
0.319759
0.334035
0.348766
0.363965
0.37965
0.395833
0.412535
0.429775
0.447575
0.465962
0.484966
0.504621
0.524965
0.546042
0.567903
0.590603
0.614206
0.638786
0.66442
0.691198
0.719218
0.748589
0.779434
0.811884
0.846084
0.882194
0.920385
0.960842
1.00377
1.04938
1.09791
1.1496
1.20473
1.26358
1.32645
1.39367
1.46557
1.54254
1.62495
1.71323
1.80782
1.90918
2.01782
2.13427
2.25909
2.3929
2.53633
2.69008
2.85486
3.03144
3.22065
3.42333
3.64036
3.87267
4.12116
4.38672
4.67013
4.97209
5.29274
5.6324
5.98868
6.36274
6.74026
7.13708
7.47675
7.88228
7.95722
8.41447
7.40435
8.11641
3.77687
0.14443
0.149564
0.143602
0.151403
0.161649
0.169819
0.178119
0.187292
0.196891
0.206786
0.217068
0.227764
0.238864
0.250372
0.262301
0.274661
0.287461
0.300713
0.31443
0.328625
0.343314
0.358515
0.374246
0.390529
0.407386
0.424842
0.442924
0.461667
0.481104
0.501275
0.522226
0.544009
0.566681
0.590304
0.614949
0.640696
0.667631
0.69585
0.725461
0.756579
0.789333
0.823863
0.860321
0.898874
0.9397
0.982995
1.02897
1.07784
1.12986
1.18527
1.24437
1.30745
1.37481
1.44681
1.52379
1.60614
1.69428
1.78864
1.88968
1.99791
2.11384
2.23807
2.37119
2.51386
2.66675
2.83065
3.00634
3.19467
3.39655
3.61295
3.84492
4.09353
4.35987
4.64507
4.9502
5.27629
5.62396
5.99393
6.38474
6.79759
7.221
7.66755
8.07223
8.53787
8.71307
9.23023
8.36302
9.12898
4.59326
0.143934
0.149933
0.144126
0.150738
0.160289
0.168055
0.175856
0.184534
0.193711
0.203224
0.213147
0.223511
0.234309
0.245542
0.257222
0.269361
0.281969
0.295059
0.308647
0.322749
0.337382
0.352568
0.368329
0.384691
0.40168
0.419327
0.437665
0.45673
0.476565
0.497215
0.518732
0.541172
0.564601
0.589087
0.614708
0.641551
0.669708
0.699283
0.73039
0.763153
0.797705
0.834196
0.872784
0.913643
0.956958
1.00293
1.05178
1.10374
1.15907
1.21801
1.28088
1.34796
1.4196
1.49614
1.57795
1.66544
1.75904
1.8592
1.96642
2.08121
2.20414
2.33582
2.4769
2.62807
2.79009
2.96375
3.14996
3.34963
3.56378
3.7935
4.03996
4.30442
4.58816
4.89255
5.21897
5.56881
5.94314
6.34317
6.76837
7.22019
7.68981
8.1874
8.65854
9.18813
9.46865
10.0532
9.35611
10.1668
5.45146
0.142898
0.149517
0.144063
0.149633
0.158472
0.16584
0.173175
0.18137
0.190126
0.199259
0.208821
0.21885
0.22934
0.24029
0.251713
0.263621
0.276026
0.288943
0.302387
0.31638
0.33094
0.346093
0.361863
0.378281
0.395377
0.413187
0.431749
0.451104
0.4713
0.492386
0.514424
0.537472
0.561601
0.586888
0.613418
0.641282
0.670581
0.701425
0.733934
0.768239
0.804481
0.842815
0.883407
0.926438
0.972102
1.02061
1.07218
1.12706
1.18551
1.24781
1.31425
1.38515
1.46085
1.54172
1.62814
1.72054
1.81936
1.92508
2.03822
2.15932
2.28898
2.42785
2.5766
2.73599
2.90682
3.08997
3.28639
3.49709
3.7232
3.96591
4.22653
4.50651
4.80734
5.13062
5.47804
5.85133
6.25209
6.682
7.14147
7.63236
8.14833
8.69769
9.23591
9.8315
10.2201
10.8732
10.3602
11.2141
7.04963
0.141323
0.148323
0.143368
0.148041
0.156168
0.16314
0.170041
0.17777
0.186108
0.194861
0.204064
0.213754
0.223929
0.234589
0.245745
0.25741
0.269598
0.282326
0.295611
0.309476
0.323943
0.339039
0.354794
0.371241
0.388413
0.406353
0.425101
0.444705
0.465217
0.486692
0.509195
0.532792
0.557559
0.583579
0.610942
0.639745
0.670098
0.702114
0.735922
0.771658
0.80947
0.84952
0.89198
0.937039
0.984896
1.03577
1.08989
1.14752
1.2089
1.27435
1.34415
1.41864
1.49818
1.58314
1.67393
1.77097
1.87474
1.98574
2.10449
2.2316
2.36766
2.51337
2.66946
2.8367
3.01596
3.20819
3.4144
3.63569
3.87329
4.12852
4.40282
4.6978
5.01516
5.35676
5.7246
6.1208
6.54743
7.00675
7.50007
8.02984
8.5921
9.19407
9.80026
10.4656
10.9663
11.6984
11.3854
12.2984
8.36665
0.139214
0.146367
0.142009
0.145926
0.15335
0.159928
0.166423
0.173706
0.181633
0.190009
0.198852
0.2082
0.218055
0.228417
0.239294
0.250704
0.262661
0.275182
0.288288
0.302004
0.316353
0.331368
0.347079
0.363523
0.380738
0.39877
0.417665
0.437473
0.458251
0.480059
0.502968
0.527051
0.552387
0.579064
0.607178
0.636834
0.668144
0.70123
0.736226
0.773274
0.812529
0.854159
0.898342
0.945274
0.995162
1.04823
1.10472
1.16489
1.22901
1.29738
1.37033
1.44818
1.5313
1.62008
1.71495
1.81635
1.92476
2.04071
2.16475
2.29749
2.43959
2.59174
2.75473
2.92939
3.11662
3.31742
3.53288
3.7642
4.01269
4.27978
4.56705
4.87629
5.20938
5.56846
5.95582
6.37395
6.82543
7.3131
7.83919
8.40686
9.01441
9.66863
10.3423
11.0795
11.6938
12.5143
12.4178
13.4028
9.56839
0.136579
0.143671
0.139969
0.143261
0.150002
0.156188
0.162302
0.169159
0.17668
0.184682
0.193168
0.202172
0.211701
0.221755
0.232344
0.243484
0.255193
0.267491
0.280398
0.293941
0.308149
0.323054
0.33869
0.355098
0.37232
0.390403
0.409399
0.429362
0.450355
0.472444
0.495699
0.520199
0.546034
0.573291
0.602074
0.632492
0.664663
0.698716
0.73479
0.773033
0.813606
0.856683
0.902448
0.951104
1.00287
1.05796
1.11664
1.17917
1.24583
1.31694
1.3928
1.47378
1.56026
1.65262
1.75132
1.8568
1.96958
2.09019
2.21922
2.35729
2.50508
2.66335
2.83288
3.01457
3.20937
3.41833
3.6426
3.88348
4.14236
4.42079
4.7205
5.0434
5.39161
5.7675
6.17366
6.61296
7.08848
7.60365
8.16158
8.76627
9.41812
10.1239
10.864
11.6736
12.4015
13.3128
13.4439
14.5011
11.162
0.13342
0.140262
0.137238
0.140026
0.146111
0.151906
0.15766
0.164111
0.171235
0.178866
0.186994
0.195652
0.204848
0.214585
0.224873
0.235731
0.247174
0.259228
0.271914
0.28526
0.299297
0.314061
0.329589
0.345925
0.363112
0.381204
0.400253
0.420321
0.441473
0.46378
0.487317
0.512166
0.538421
0.566176
0.595541
0.626627
0.65956
0.694473
0.73151
0.770826
0.812588
0.856973
0.904176
0.954402
1.00787
1.06483
1.12552
1.19022
1.25922
1.33284
1.41142
1.4953
1.58489
1.68059
1.78286
1.89216
2.00902
2.134
2.2677
2.41077
2.56393
2.72794
2.90365
3.09197
3.29393
3.51061
3.74325
3.99319
4.26195
4.55117
4.86272
5.19866
5.56131
5.95327
6.37745
6.83708
7.33573
7.87742
8.46616
9.10679
9.80178
10.5583
11.3637
12.2462
13.0873
14.0942
14.4597
15.5974
12.8403
0.129739
0.136169
0.133816
0.136205
0.141671
0.147075
0.152486
0.158549
0.165284
0.172547
0.180317
0.188624
0.19748
0.20689
0.216865
0.227422
0.238582
0.250368
0.262807
0.275928
0.289764
0.304353
0.319735
0.335958
0.353067
0.371119
0.39017
0.410287
0.431537
0.453993
0.47774
0.502863
0.529456
0.557622
0.587471
0.619126
0.652712
0.688369
0.726247
0.766504
0.809314
0.854861
0.903343
0.954973
1.00998
1.0686
1.13111
1.19778
1.2689
1.34481
1.42585
1.51239
1.60482
1.70358
1.80911
1.92192
2.04254
2.17153
2.30954
2.45723
2.61534
2.78466
2.96608
3.16055
3.36913
3.59297
3.83337
4.09174
4.36967
4.66892
4.99147
5.33954
5.71565
6.12261
6.56361
7.04226
7.5626
8.12923
8.74702
9.42174
10.1577
10.9631
11.8313
12.7861
13.7381
14.847
15.452
16.6903
14.3165
0.125537
0.131423
0.129707
0.131791
0.136676
0.141694
0.146775
0.152467
0.158822
0.165717
0.173128
0.181081
0.18959
0.198661
0.208307
0.218547
0.229402
0.240898
0.253064
0.26593
0.279533
0.293911
0.309109
0.325174
0.34216
0.360122
0.379122
0.399228
0.420513
0.443054
0.466937
0.492253
0.5191
0.547587
0.577829
0.609949
0.644078
0.680364
0.718958
0.760026
0.803746
0.850307
0.899913
0.952783
1.00915
1.06926
1.13339
1.20182
1.27486
1.35284
1.43612
1.52506
1.62008
1.72162
1.83014
1.94616
2.07022
2.20291
2.34489
2.49683
2.6595
2.83374
3.02045
3.22061
3.43533
3.66582
3.91342
4.17962
4.46609
4.77468
5.10749
5.46689
5.85556
6.27654
6.73328
7.22974
7.77042
8.36046
9.00557
9.71243
10.4872
11.339
12.2669
13.2917
14.3499
15.5608
16.4035
17.7482
15.984
0.120811
0.126056
0.124924
0.12678
0.131129
0.135764
0.140526
0.145862
0.151843
0.158372
0.165422
0.173016
0.181168
0.189888
0.19919
0.209094
0.219623
0.230805
0.242669
0.255249
0.268584
0.282713
0.297686
0.313551
0.330362
0.348181
0.367073
0.387108
0.408362
0.430917
0.454861
0.48029
0.507307
0.536021
0.566556
0.599037
0.633601
0.670398
0.709585
0.751333
0.795824
0.843254
0.89383
0.947778
1.00534
1.06676
1.13232
1.20232
1.27707
1.3569
1.44219
1.5333
1.63067
1.73473
1.84598
1.96493
2.09214
2.22822
2.37384
2.5297
2.6966
2.87538
3.06698
3.27243
3.49286
3.72955
3.98386
4.25737
4.55181
4.86915
5.21157
5.5816
5.98205
6.41619
6.88773
7.40095
7.96077
8.57289
9.24379
9.98105
10.7925
11.6885
12.6731
13.7655
14.9251
16.2376
17.3112
18.7654
17.7439
0.115561
0.120102
0.119484
0.121176
0.125032
0.129291
0.133741
0.138733
0.144347
0.15051
0.157196
0.164423
0.172208
0.180563
0.189503
0.199051
0.20923
0.220068
0.2316
0.243861
0.256889
0.270729
0.285432
0.301047
0.317632
0.335252
0.353974
0.373871
0.395023
0.417515
0.441439
0.466892
0.493986
0.522833
0.553552
0.58628
0.62116
0.658341
0.697987
0.740273
0.785384
0.833523
0.884901
0.939749
0.99831
1.06085
1.12764
1.19899
1.27521
1.35666
1.44369
1.53671
1.63614
1.74244
1.85609
1.97764
2.10765
2.24676
2.39563
2.555
2.72568
2.90853
3.10453
3.31474
3.54032
3.78258
4.04295
4.32305
4.6247
4.94992
5.30103
5.68065
6.09177
6.53781
7.02275
7.55115
8.12834
8.76053
9.45489
10.2199
11.0649
12.0017
13.0387
14.195
15.4492
16.8635
18.1576
19.7386
19.2786
0.109784
0.113594
0.113411
0.114984
0.118395
0.122286
0.126429
0.131086
0.136338
0.142134
0.14845
0.155303
0.16271
0.170685
0.179246
0.188414
0.198218
0.208687
0.219854
0.23176
0.244443
0.257952
0.272337
0.287652
0.303958
0.321321
0.33981
0.359503
0.38048
0.402833
0.426654
0.452046
0.479122
0.507999
0.538803
0.571668
0.606742
0.644182
0.684153
0.726835
0.77242
0.82111
0.873126
0.928701
0.988084
1.05154
1.11936
1.19185
1.26933
1.35216
1.4407
1.53537
1.63659
1.74484
1.86062
1.98446
2.11695
2.25874
2.41051
2.57301
2.74706
2.93357
3.13353
3.34801
3.57822
3.8255
4.09134
4.37741
4.68557
5.01794
5.37691
5.76523
6.186
6.64285
7.13993
7.68209
8.27502
8.92539
9.64102
10.4312
11.3067
12.2806
13.3651
14.5799
15.9201
17.4302
18.926
20.6366
20.8536
0.103479
0.106564
0.106731
0.108218
0.111228
0.114763
0.118602
0.122931
0.127825
0.133251
0.139192
0.145661
0.152676
0.160254
0.168415
0.177182
0.186584
0.196652
0.207422
0.218935
0.231233
0.244366
0.258385
0.27335
0.28932
0.306364
0.324557
0.343976
0.364705
0.386839
0.410474
0.435716
0.462679
0.491484
0.522262
0.555151
0.5903
0.627871
0.668034
0.710973
0.756882
0.805969
0.85846
0.91459
0.974616
1.03881
1.10746
1.18088
1.2594
1.34338
1.4332
1.52928
1.63205
1.74198
1.85959
1.98544
2.12011
2.26426
2.4186
2.58388
2.76095
2.95073
3.15422
3.37255
3.60694
3.85876
4.12955
4.42102
4.73509
5.07396
5.44008
5.83629
6.26586
6.73253
7.24066
7.79534
8.40258
9.06946
9.80439
10.6174
11.5205
12.528
13.6554
14.9237
16.341
17.9411
19.6173
21.457
22.322
0.0966475
0.0990475
0.0994767
0.100896
0.103548
0.106738
0.110274
0.114279
0.118815
0.123868
0.129425
0.135499
0.142108
0.149271
0.15701
0.16535
0.17432
0.183955
0.194292
0.205372
0.217242
0.229951
0.243554
0.258112
0.273686
0.290349
0.308175
0.327246
0.347648
0.369478
0.392835
0.41783
0.444576
0.473201
0.503838
0.536627
0.57172
0.609287
0.649496
0.692538
0.738608
0.787922
0.840705
0.897202
0.95767
1.02239
1.09165
1.16577
1.24508
1.32996
1.42079
1.51798
1.62199
1.73329
1.8524
1.9799
2.11637
2.26249
2.41897
2.58658
2.76619
2.95873
3.16521
3.3868
3.62473
3.88042
4.15541
4.45148
4.77059
5.11497
5.48718
5.89013
6.32717
6.80218
7.31969
7.885
8.50438
9.18528
9.9366
10.7691
11.6956
12.7318
13.896
15.2108
16.6947
18.3767
20.2095
22.1828
23.537
0.089294
0.0910771
0.0916846
0.0930411
0.0953731
0.0982326
0.101466
0.105147
0.109327
0.114001
0.119165
0.12483
0.131017
0.137746
0.14504
0.152926
0.161435
0.170604
0.180471
0.191079
0.202476
0.214714
0.227849
0.241942
0.257062
0.273277
0.290668
0.309318
0.329315
0.350758
0.373748
0.3984
0.424831
0.453169
0.483554
0.516124
0.551039
0.588468
0.628584
0.671581
0.71766
0.767039
0.819948
0.876633
0.937358
1.0024
1.07207
1.14668
1.22657
1.31212
1.40371
1.50177
1.60675
1.71915
1.83948
1.96832
2.10629
2.25405
2.41233
2.58191
2.76368
2.95857
3.16764
3.39204
3.63305
3.89209
4.17076
4.47085
4.79437
5.1436
5.52116
5.93002
6.37363
6.85599
7.38176
7.95642
8.58647
9.27967
10.0453
10.8947
11.8416
12.9028
14.0985
15.4535
16.9935
18.7466
20.7072
22.8031
24.6272
0.0814301
0.0826872
0.0833945
0.0846826
0.0867285
0.0892713
0.092201
0.0955566
0.0993763
0.103665
0.108424
0.113667
0.119413
0.125686
0.13251
0.139915
0.147932
0.1566
0.165958
0.176051
0.186929
0.198646
0.211258
0.224831
0.23943
0.255133
0.272016
0.290167
0.309677
0.330646
0.353179
0.377391
0.403404
0.431346
0.461357
0.493586
0.528194
0.565348
0.605231
0.648035
0.693967
0.743246
0.796107
0.852801
0.913594
0.978771
1.04864
1.12352
1.20377
1.28975
1.38186
1.48053
1.58623
1.69944
1.82071
1.9506
2.08975
2.23882
2.39855
2.56976
2.7533
2.95016
3.16139
3.38816
3.63177
3.89366
4.17547
4.479
4.8063
5.1597
5.54184
5.95579
6.40507
6.89373
7.42657
8.00921
8.64832
9.35192
10.1296
10.9932
11.9569
13.0385
14.2598
15.6471
17.2315
19.0423
21.1002
23.3017
25.4433
0.0730748
0.0739132
0.0746509
0.0758554
0.077642
0.0798814
0.082505
0.0855302
0.0889844
0.0928784
0.0972193
0.102022
0.107308
0.113102
0.11943
0.126322
0.133814
0.141943
0.150751
0.160284
0.170594
0.181736
0.193769
0.206758
0.220774
0.235891
0.252191
0.269763
0.288699
0.3091
0.331076
0.354741
0.380222
0.407651
0.437165
0.468921
0.503078
0.53981
0.579299
0.621743
0.66735
0.716343
0.768961
0.825456
0.886099
0.95118
1.02101
1.09591
1.17623
1.26236
1.3547
1.45367
1.55974
1.67342
1.79524
1.92579
2.06568
2.21561
2.37633
2.54862
2.7334
2.93163
3.14437
3.37282
3.61827
3.8822
4.16624
4.47222
4.80221
5.15859
5.544
5.96155
6.41481
6.90788
7.44563
8.03377
8.6791
9.38976
10.1756
11.0486
12.0236
13.1188
14.3569
15.7658
17.3797
19.2308
21.3552
23.6459
25.9611
0.0642575
0.064791
0.0655011
0.0666006
0.0681475
0.0700952
0.0724096
0.0750973
0.0781781
0.0816664
0.0855748
0.0899204
0.0947252
0.100015
0.105819
0.112169
0.1191
0.126652
0.134869
0.143799
0.153493
0.164007
0.175404
0.18775
0.201115
0.215577
0.23122
0.248133
0.266411
0.286157
0.307481
0.3305
0.355344
0.382145
0.411049
0.442206
0.475784
0.511957
0.550909
0.592843
0.637968
0.686512
0.738715
0.794834
0.855143
0.919934
0.989518
1.06423
1.14442
1.23048
1.3228
1.42183
1.52803
1.64192
1.76402
1.89494
2.0353
2.18579
2.34717
2.52025
2.70592
2.90516
3.11906
3.3488
3.59571
3.86127
4.1471
4.45506
4.78726
5.14607
5.53417
5.9547
6.41125
6.90799
7.44983
8.04254
8.69299
9.40943
10.2019
11.0824
12.0662
13.1718
14.4224
15.8467
17.4802
19.3574
21.5196
23.8688
26.2141
0.0550185
0.0553575
0.055994
0.0569629
0.0582822
0.0599465
0.0619465
0.064287
0.0669835
0.0700528
0.0735115
0.0773792
0.0816794
0.0864397
0.0916897
0.0974635
0.103798
0.110734
0.118317
0.126595
0.135622
0.145455
0.156156
0.167795
0.180443
0.194178
0.209085
0.225256
0.242787
0.261784
0.282358
0.304628
0.328723
0.354781
0.382946
0.413376
0.446237
0.481706
0.51997
0.561236
0.605714
0.653635
0.705243
0.760796
0.820572
0.884867
0.953994
1.02829
1.10812
1.19386
1.28592
1.38474
1.49081
1.60461
1.72671
1.8577
1.99821
2.14894
2.31064
2.48414
2.67032
2.87019
3.08483
3.31543
3.56333
3.83001
4.11711
4.42652
4.76032
5.12091
5.51101
5.93375
6.39275
6.89219
7.43702
8.03304
8.68716
9.40767
10.2046
11.0902
12.0796
13.1913
14.4489
15.8807
17.5223
19.4082
21.5761
23.9305
26.2386
0.0454152
0.045651
0.0461805
0.0469935
0.048089
0.0494738
0.0511523
0.0531331
0.0554317
0.0580664
0.0610565
0.0644239
0.0681943
0.0723962
0.0770612
0.0822245
0.0879244
0.0942028
0.101106
0.108683
0.11699
0.126083
0.136028
0.146892
0.15875
0.171682
0.185772
0.201114
0.217806
0.235953
0.255671
0.277079
0.300308
0.325494
0.352789
0.382348
0.414343
0.448949
0.486361
0.526781
0.570426
0.617528
0.668332
0.723102
0.782115
0.845672
0.914087
0.987701
1.06688
1.152
1.24348
1.34176
1.44733
1.56068
1.68238
1.813
1.95321
2.10369
2.26519
2.43855
2.62466
2.8245
3.03918
3.26989
3.51796
3.78487
4.07227
4.38203
4.71626
5.07731
5.46792
5.89123
6.3508
6.85083
7.39623
7.99278
8.64736
9.36818
10.1652
11.0505
12.0391
13.1492
14.4037
15.8305
17.463
19.3341
21.4713
23.7778
26.031
0.0355185
0.0357101
0.0361106
0.0367472
0.0376164
0.0387189
0.0400658
0.0416729
0.0435576
0.0457393
0.0482398
0.0510834
0.0542974
0.0579117
0.0619593
0.0664766
0.071503
0.0770818
0.0832597
0.0900872
0.0976197
0.105917
0.115044
0.12507
0.136069
0.148122
0.161316
0.175745
0.191507
0.208711
0.227471
0.247909
0.270157
0.294357
0.320655
0.349213
0.380201
0.413802
0.450207
0.489622
0.532267
0.578376
0.628196
0.681992
0.740047
0.802661
0.870153
0.942864
1.02116
1.10543
1.19608
1.29357
1.39838
1.511
1.63201
1.76199
1.90158
2.05149
2.21247
2.38535
2.57103
2.77049
2.98482
3.21523
3.46304
3.72973
4.01694
4.32653
4.66061
5.02154
5.41202
5.83514
6.29449
6.79422
7.3392
7.93512
8.58879
9.30829
10.1034
10.986
11.9706
13.075
14.3209
15.7349
17.3466
19.1861
21.2608
23.4799
25.5253
0.0254095
0.0255726
0.0258313
0.0262789
0.0269133
0.0277237
0.0287253
0.0299417
0.0313936
0.0331015
0.0350889
0.0373824
0.0400111
0.0430062
0.0464021
0.050236
0.0545483
0.059383
0.0647877
0.0708144
0.0775188
0.0849602
0.0932046
0.102322
0.112389
0.123486
0.135701
0.149127
0.163866
0.180026
0.197722
0.217079
0.238229
0.261313
0.286484
0.313901
0.343737
0.376176
0.411413
0.449655
0.491122
0.536052
0.584694
0.637316
0.694201
0.755652
0.821991
0.893561
0.97073
1.05389
1.14345
1.23987
1.34362
1.45523
1.57523
1.70424
1.84288
1.99188
2.15198
2.324
2.50884
2.7075
2.92106
3.15071
3.39778
3.66373
3.95022
4.25908
4.5924
4.95254
5.34217
5.76434
6.22261
6.72111
7.26459
7.85869
8.51006
9.22664
10.018
10.8955
11.8732
12.9682
14.2006
15.5952
17.1757
18.9703
20.9555
23.0695
24.7932
0.0151738
0.0152798
0.0153945
0.0156487
0.0160345
0.0165354
0.0171742
0.0179813
0.0189795
0.0201899
0.0216386
0.0233543
0.0253674
0.0277104
0.0304188
0.0335305
0.0370869
0.0411325
0.0457159
0.0508884
0.056707
0.0632328
0.0705307
0.0786711
0.0877301
0.0977904
0.10894
0.121273
0.134891
0.149902
0.166425
0.184583
0.20451
0.22635
0.250254
0.276383
0.304912
0.336026
0.369921
0.406807
0.446906
0.490455
0.537708
0.588932
0.644415
0.704458
0.769385
0.839543
0.915299
0.997046
1.0852
1.18022
1.28257
1.39278
1.51139
1.63901
1.77628
1.92389
2.0826
2.25323
2.43668
2.63393
2.84606
3.07425
3.31981
3.5842
3.86906
4.1762
4.50768
4.86582
5.25325
5.673
6.12854
6.6239
7.16375
7.75356
8.39981
9.11018
9.89382
10.7618
11.7271
12.8059
14.0162
15.3811
16.9163
18.6511
20.5188
22.5216
23.8098
0.00489224
0.00487662
0.00485742
0.00491882
0.00503473
0.00520238
0.00545822
0.00583566
0.00635638
0.0070439
0.00792689
0.00903557
0.0104016
0.0120589
0.0140433
0.0163936
0.0191519
0.0223633
0.0260761
0.0303429
0.0352204
0.0407688
0.0470544
0.0541486
0.062127
0.0710716
0.0810715
0.0922212
0.104623
0.118386
0.133627
0.150473
0.169057
0.189525
0.212028
0.236727
0.263803
0.293437
0.32583
0.36119
0.399742
0.441725
0.487394
0.537018
0.590885
0.649301
0.71259
0.781099
0.855198
0.935278
1.02176
1.1151
1.21576
1.32428
1.44119
1.5671
1.70265
1.84853
2.0055
2.17437
2.35602
2.55144
2.7617
2.98796
3.23152
3.49384
3.7765
4.08132
4.41029
4.76571
5.15018
5.56663
6.01846
6.5096
7.04456
7.62866
8.26813
8.97031
9.74391
10.5993
11.5487
12.6069
13.7892
15.117
16.5957
18.2592
19.9828
21.8639
22.6158
-0.00536259
-0.00558935
-0.00571983
-0.00584896
-0.00603165
-0.00622628
-0.00637607
-0.0064516
-0.00643396
-0.00629732
-0.00600954
-0.00553851
-0.00485181
-0.00391562
-0.00269275
-0.00114423
0.000772814
0.00310318
0.00589537
0.00920253
0.013081
0.0175912
0.0227994
0.0287759
0.0355973
0.0433454
0.0521092
0.0619837
0.0730701
0.0854793
0.0993309
0.114747
0.131864
0.150826
0.171788
0.194915
0.22038
0.248371
0.279088
0.312742
0.34956
0.389781
0.433661
0.48147
0.533497
0.590052
0.651458
0.718064
0.790239
0.868377
0.9529
1.04426
1.14293
1.24943
1.3643
1.48816
1.62162
1.76539
1.92021
2.0869
2.26632
2.45945
2.66735
2.89117
3.1322
3.39185
3.6717
3.97353
4.29929
4.65123
5.03188
5.44411
5.89121
6.37698
6.90579
7.48274
8.11377
8.80584
9.56714
10.4073
11.3374
12.3709
13.52
14.8042
16.2164
17.7991
19.3548
21.1066
21.3605
-0.0155267
-0.0160675
-0.0162726
-0.0165914
-0.0171094
-0.0176995
-0.0182798
-0.0188336
-0.0193475
-0.0197911
-0.0201284
-0.0203271
-0.020354
-0.0201744
-0.0197514
-0.0190445
-0.0180126
-0.0166101
-0.0147876
-0.0124932
-0.00967154
-0.00626159
-0.00219769
0.0025904
0.00817848
0.0146485
0.0220888
0.030595
0.0402682
0.0512195
0.0635647
0.0774313
0.0929554
0.110281
0.12956
0.150959
0.174657
0.200839
0.229705
0.261469
0.296356
0.334609
0.376484
0.422254
0.472206
0.526651
0.585915
0.650346
0.720313
0.796213
0.878465
0.967516
1.06385
1.16797
1.28043
1.40183
1.53279
1.67401
1.82621
1.99021
2.16687
2.35715
2.56209
2.78282
3.02061
3.27685
3.55308
3.85103
4.17262
4.52002
4.89568
5.3024
5.74334
6.22213
6.74297
7.3107
7.93093
8.61018
9.35602
10.1773
11.0838
12.0874
13.1969
14.4307
15.7664
17.2618
18.6317
20.2632
19.903
-0.0255429
-0.0265037
-0.026734
-0.027247
-0.0281452
-0.029167
-0.0302038
-0.0312636
-0.0323395
-0.0333943
-0.0343885
-0.0352891
-0.0360639
-0.0366778
-0.0370928
-0.0372689
-0.0371652
-0.0367368
-0.0359336
-0.0347064
-0.0329988
-0.0307498
-0.0278959
-0.0243668
-0.0200875
-0.0149768
-0.00894511
-0.00190034
0.00626123
0.0156481
0.0263791
0.0385787
0.0523828
0.0679349
0.0853939
0.104922
0.126695
0.150903
0.177746
0.207439
0.240208
0.276297
0.315962
0.359477
0.40713
0.459233
0.516112
0.578115
0.645614
0.719002
0.798698
0.885153
0.978839
1.08027
1.18999
1.30859
1.43669
1.57498
1.72418
1.88509
2.05857
2.24555
2.44706
2.66421
2.89825
3.15051
3.42252
3.71594
4.03267
4.37478
4.74464
5.14494
5.57872
6.04943
6.56106
7.11815
7.72596
8.39053
9.11873
9.91857
10.7983
11.7685
12.8338
14.0125
15.2641
16.668
17.838
19.3518
18.3665
-0.0353619
-0.0368419
-0.0370364
-0.0377558
-0.0390869
-0.0405783
-0.0420994
-0.0436949
-0.0453652
-0.0470638
-0.0487473
-0.0503843
-0.051942
-0.0533858
-0.0546775
-0.0557781
-0.0566464
-0.0572382
-0.0575059
-0.0573982
-0.0568621
-0.0558364
-0.0542584
-0.0520604
-0.0491664
-0.0454959
-0.0409624
-0.0354717
-0.028922
-0.0212061
-0.0122051
-0.00179345
0.0101633
0.0238098
0.0393012
0.0568027
0.0764913
0.0985574
0.1232
0.150635
0.181091
0.21481
0.25205
0.293086
0.338207
0.387724
0.441963
0.501276
0.566029
0.636618
0.713463
0.797007
0.887728
0.98613
1.09276
1.2082
1.33307
1.46803
1.61382
1.77122
1.94106
2.12427
2.32185
2.5349
2.76461
3.01232
3.27949
3.56772
3.87886
4.2149
4.57811
4.97107
5.39665
5.85815
6.3593
6.90434
7.49813
8.14618
8.85461
9.63052
10.4805
11.414
12.4307
13.5497
14.7101
16.0179
16.9774
18.3734
16.955
-0.044939
-0.0470217
-0.0471108
-0.0480593
-0.0498823
-0.0518819
-0.0539158
-0.0560795
-0.0583787
-0.0607543
-0.0631604
-0.065567
-0.0679431
-0.070254
-0.0724608
-0.0745267
-0.0764098
-0.0780673
-0.0794543
-0.0805198
-0.0812112
-0.0814695
-0.0812348
-0.0804375
-0.0790042
-0.0768559
-0.0739069
-0.0700656
-0.0652278
-0.0592897
-0.0521315
-0.0436292
-0.0336504
-0.0220488