/*--------------------------------*- C++ -*----------------------------------*\
  =========                 |
  \\      /  F ield         | OpenFOAM: The Open Source CFD Toolbox
   \\    /   O peration     | Website:  https://openfoam.org
    \\  /    A nd           | Version:  11
     \\/     M anipulation  |
\*---------------------------------------------------------------------------*/
FoamFile
{
    format      ascii;
    class       volScalarField;
    location    "200";
    object      p;
}
// * * * * * * * * * * * * * * * * * * * * * * * * * * * * * * * * * * * * * //

dimensions      [0 2 -2 0 0 0 0];

internalField   nonuniform List<scalar> 
31595
(
12.2917
8.34584
9.18394
9.58981
10.1803
10.4873
11.063
11.5491
12.1049
12.658
13.2498
13.8565
14.4921
15.151
15.8375
16.5511
17.2937
18.0659
18.8691
19.7044
20.5727
21.4753
22.4132
23.3875
24.3993
25.4497
26.5398
27.6707
28.8436
30.0594
31.3196
32.6252
33.9776
35.3781
36.8281
38.3291
39.8829
41.4911
43.1557
44.8787
46.6624
48.5091
50.4217
52.4028
54.4557
56.5835
58.79
61.0789
63.4544
65.9209
68.4833
71.1466
73.9162
76.7979
79.7981
82.9232
86.1804
89.5774
93.1222
96.8236
100.691
104.734
108.964
113.392
118.031
122.894
127.996
133.352
138.98
144.897
151.124
157.681
164.593
171.884
179.579
187.709
196.301
205.385
214.993
225.149
235.876
247.183
259.058
271.447
284.249
297.166
309.959
321.189
331.493
10.2313
8.9459
8.68229
9.4805
9.99871
10.3977
10.9057
11.424
11.9562
12.5078
13.0842
13.682
14.3039
14.9505
15.6231
16.3226
17.0503
17.8072
18.5945
19.4132
20.2645
21.1493
22.0689
23.0243
24.0166
25.0471
26.1167
27.2266
28.3779
29.572
30.8101
32.0934
33.4231
34.8009
36.2282
37.7065
39.2377
40.8236
42.4659
44.1671
45.9293
47.7551
49.6472
51.6085
53.642
55.7513
57.9399
60.2117
62.571
65.0221
67.57
70.2198
72.977
75.8473
78.8372
81.9535
85.2031
88.594
92.1343
95.8329
99.6995
103.744
107.978
112.413
117.061
121.938
127.057
132.435
138.089
144.039
150.306
156.911
163.879
171.237
179.012
187.235
195.938
205.153
214.913
225.248
236.184
247.735
259.89
272.598
285.75
299.045
312.177
323.694
333.854
9.23871
8.90092
8.50952
9.27946
9.84521
10.2665
10.7528
11.271
11.794
12.3355
12.8994
13.485
14.0933
14.7258
15.3837
16.0679
16.7797
17.5202
18.2904
19.0914
19.9244
20.7903
21.6904
22.6258
23.5974
24.6066
25.6544
26.742
27.8706
29.0415
30.2559
31.5152
32.8208
34.1741
35.5768
37.0305
38.537
40.098
41.7159
43.3926
45.1307
46.9326
48.8011
50.7392
52.75
54.837
57.0037
59.2543
61.5928
64.0238
66.5522
69.1832
71.9223
74.7754
77.7489
80.8496
84.0849
87.4624
90.9907
94.6787
98.5361
102.573
106.802
111.234
115.882
120.761
125.885
131.273
136.942
142.911
149.204
155.842
162.851
170.261
178.099
186.398
195.194
204.521
214.416
224.912
236.041
247.819
260.241
273.261
286.763
300.448
313.934
325.799
335.796
8.83602
8.77016
8.40259
9.09629
9.68951
10.1177
10.5901
11.0985
11.6127
12.1419
12.6923
13.2641
13.8578
14.475
15.117
15.7849
16.4797
17.2025
17.9545
18.7368
19.5503
20.3963
21.2757
22.1898
23.1397
24.1264
25.1512
26.2153
27.3199
28.4662
29.6556
30.8896
32.1695
33.4968
34.8733
36.3006
37.7806
39.3151
40.9063
42.5565
44.2681
46.0436
47.886
49.798
51.7831
53.8446
55.9862
58.212
60.5261
62.9331
65.4379
68.0458
70.7623
73.5933
76.5454
79.6253
82.8405
86.1988
89.7088
93.3795
97.221
101.244
105.459
109.879
114.518
119.39
124.511
129.897
135.569
141.546
147.851
154.509
161.545
168.989
176.874
185.232
194.101
203.52
213.528
224.164
235.461
247.445
260.114
273.43
287.269
301.346
315.198
327.45
337.287
8.5965
8.6714
8.31509
8.93787
9.53282
9.96111
10.4172
10.9118
11.4142
11.9294
12.4649
13.0213
13.5992
14.2
14.825
15.4753
16.152
16.8562
17.5889
18.3512
19.1443
19.9691
20.8268
21.7185
22.6454
23.6085
24.6092
25.6485
26.7278
27.8482
29.0114
30.2185
31.4712
32.7711
34.1196
35.5187
36.9703
38.4763
40.0388
41.6603
43.343
45.0897
46.9032
48.7865
50.7429
52.7758
54.8891
57.0866
59.3726
61.7519
64.2291
66.8096
69.4991
72.3035
75.2294
78.2835
81.4734
84.807
88.2929
91.9404
95.7594
99.7607
103.956
108.357
112.979
117.836
122.945
128.322
133.988
139.963
146.27
152.936
159.988
167.456
175.374
183.778
192.707
202.203
212.31
223.069
234.522
246.696
259.599
273.197
287.368
301.834
316.055
328.715
338.337
8.43889
8.60354
8.24293
8.79436
9.3755
9.79699
10.2341
10.7111
11.1989
11.6984
12.2173
12.757
13.3177
13.9009
14.5078
15.1394
15.7969
16.4813
17.1936
17.935
18.7064
19.509
20.3439
21.2121
22.1148
23.0531
24.0283
25.0415
26.0941
27.1874
28.3228
29.5017
30.7257
31.9963
33.3153
34.6845
36.1057
37.5811
39.1128
40.7032
42.3547
44.07
45.852
47.7037
49.6284
51.6295
53.711
55.8767
58.131
60.4784
62.9239
65.4729
68.1307
70.9037
73.7982
76.8212
79.9802
83.2832
86.7389
90.3565
94.1462
98.119
102.286
106.661
111.258
116.091
121.177
126.535
132.184
138.145
144.443
151.104
158.157
165.634
173.569
182.001
190.972
200.526
210.709
221.571
233.154
245.496
258.607
272.466
286.948
301.79
316.388
329.495
338.748
8.30528
8.54023
8.17728
8.65729
9.21459
9.62433
10.04
10.4967
10.9672
11.4492
11.95
12.4715
13.0139
13.5782
14.1658
14.7777
15.4149
16.0785
16.7694
17.4886
18.2374
19.0166
19.8274
20.6709
21.5482
22.4605
23.4089
24.3947
25.4193
26.4839
27.59
28.7391
29.9326
31.1723
32.4599
33.7971
35.186
36.6286
38.1271
39.6839
41.3016
42.9827
44.7302
46.5471
48.4368
50.4027
52.4487
54.5786
56.797
59.1082
61.5173
64.0298
66.6508
69.3869
72.2442
75.2301
78.3516
81.6171
85.0352
88.6154
92.3677
96.3032
100.434
104.772
109.333
114.13
119.183
124.507
130.125
136.057
142.329
148.968
156.003
163.467
171.397
179.833
188.818
198.399
208.628
219.556
231.232
243.7
256.978
271.055
285.808
300.992
315.959
329.488
338.483
8.17647
8.46728
8.10945
8.52007
9.04654
9.44094
9.8338
10.2678
10.7189
11.1819
11.6633
12.1653
12.688
13.2325
13.7997
14.3908
15.0067
15.6483
16.3167
17.0128
17.7377
18.4925
19.2781
20.0957
20.9464
21.8313
22.7517
23.7088
24.7039
25.7385
26.8137
27.9313
29.0927
30.2997
31.5539
32.8571
34.2116
35.6192
37.0822
38.603
40.1841
41.8282
43.5383
45.3173
47.1687
49.0958
51.1026
53.1929
55.3711
57.6418
60.01
62.4808
65.06
67.7535
70.568
73.5104
76.5881
79.8093
83.1826
86.7174
90.424
94.3133
98.3974
102.689
107.203
111.954
116.959
122.238
127.81
133.698
139.927
146.525
153.522
160.951
168.852
177.264
186.234
195.811
206.049
217.004
228.73
241.277
254.67
268.909
283.875
299.343
314.619
328.362
337.557
8.04044
8.37396
8.03061
8.37681
8.86785
9.24445
9.61388
10.0237
10.4536
10.8964
11.3572
11.8386
12.3407
12.8642
13.4101
13.9794
14.5729
15.1917
15.8366
16.5085
17.2086
17.9378
18.6971
19.4877
20.3106
21.167
22.0581
22.9852
23.9495
24.9525
25.9955
27.0801
28.2077
29.3803
30.5994
31.8669
33.1849
34.5554
35.9807
37.4632
39.0053
40.61
42.2799
44.0182
45.8283
47.7135
49.6777
51.7249
53.8593
56.0857
58.4087
60.8339
63.3666
66.0131
68.7797
71.6735
74.7017
77.8728
81.1952
84.6785
88.3327
92.1688
96.1988
100.436
104.895
109.59
114.539
119.761
125.276
131.108
137.282
143.824
150.768
158.147
165.999
174.369
183.301
192.85
203.07
214.021
225.761
238.347
251.81
266.158
281.272
296.942
312.392
326.311
335.548
7.89173
8.25499
7.93447
8.22274
8.67557
9.03262
9.37862
9.76343
10.171
10.5924
11.0317
11.4915
11.9721
12.4737
12.9973
13.5439
14.1142
14.7091
15.3295
15.9763
16.6505
17.353
18.085
18.8474
19.6414
20.4681
21.3286
22.2243
23.1564
24.1265
25.1357
26.1856
27.2779
28.4143
29.5964
30.8262
32.1057
33.437
34.8224
36.2641
37.7648
39.3272
40.9542
42.6488
44.4144
46.2544
48.1726
50.173
52.2597
54.4376
56.7114
59.0862
61.5678
64.1621
66.8755
69.7151
72.6882
75.8028
79.0679
82.4924
86.0867
89.8618
93.8296
98.0031
102.397
107.026
111.908
117.062
122.508
128.27
134.372
140.844
147.717
155.025
162.809
171.111
179.98
189.471
199.64
210.55
222.263
234.841
248.319
262.716
277.906
293.691
309.159
323.362
332.029
7.72697
8.10744
7.81628
8.05394
8.46733
8.80358
9.12651
9.48609
9.87041
10.2697
10.6868
11.1243
11.5824
12.0613
12.5618
13.0848
13.6309
14.201
14.796
15.4166
16.0639
16.7388
17.4422
18.1753
18.9392
19.7348
20.5635
21.4264
22.325
23.2604
24.2342
25.2479
26.3031
27.4014
28.5446
29.7347
30.9734
32.2632
33.6061
35.0045
36.461
37.9783
39.5592
41.2069
42.9246
44.7157
46.584
48.5334
50.5683
52.6931
54.9126
57.2321
59.6571
62.1934
64.8476
67.6266
70.5375
73.5885
76.7882
80.1457
83.6712
87.3757
91.2709
95.37
99.6868
104.237
109.039
114.109
119.469
125.143
131.155
137.534
144.312
151.523
159.208
167.411
176.18
185.57
195.641
206.457
218.083
230.584
243.999
258.355
273.524
289.321
304.791
319.149
326.864
7.54452
7.93032
7.673
7.86748
8.24132
8.55591
8.85639
9.19092
9.55147
9.92812
10.3225
10.737
11.1719
11.6274
12.1041
12.6026
13.1238
13.6682
14.2368
14.8304
15.4497
16.0959
16.7697
17.4724
18.2048
18.9682
19.7637
20.5925
21.4561
22.3555
23.2923
24.2681
25.2843
26.3427
27.4451
28.5933
29.7893
31.0352
32.3332
33.6858
35.0953
36.5647
38.0966
39.6941
41.3605
43.0992
44.9138
46.8084
48.7872
50.8544
53.015
55.2741
57.6372
60.1101
62.6991
65.4111
68.2532
71.2334
74.3601
77.6426
81.0909
84.7154
88.5281
92.5419
96.7708
101.23
105.936
110.909
116.168
121.736
127.638
133.904
140.563
147.651
155.209
163.278
171.91
181.158
191.082
201.747
213.219
225.565
238.825
253.028
268.035
283.699
298.991
313.333
319.672
7.34357
7.72373
7.50274
7.66119
7.99626
8.28866
8.5674
8.87735
9.21396
9.56763
9.93891
10.33
10.7413
11.1727
11.6248
12.0983
12.5937
13.1117
13.6531
14.2186
14.8092
15.4256
16.0689
16.7401
17.4401
18.1701
18.9312
19.7246
20.5518
21.4138
22.3123
23.2486
24.2244
25.2413
26.301
27.4056
28.5568
29.7568
31.0079
32.3124
33.6728
35.0917
36.572
38.1167
39.729
41.4124
43.1703
45.0068
46.926
48.9322
51.0302
53.2251
55.5222
57.9274
60.4467
63.0871
65.8554
68.7598
71.8082
75.0098
78.3745
81.913
85.6366
89.5578
93.691
98.051
102.654
107.519
112.666
118.118
123.899
130.037
136.563
143.513
150.924
158.841
167.311
176.389
186.134
196.61
207.881
220.014
233.043
246.999
261.717
277.118
291.818
306.016
309.867
7.12357
7.48847
7.30452
7.43356
7.73132
8.00122
8.25895
8.54497
8.85768
9.18818
9.53614
9.9035
10.2906
10.6975
11.1245
11.5721
12.0411
12.5319
13.0452
13.5819
14.1427
14.7285
15.3401
15.9787
16.645
17.3404
18.0658
18.8226
19.6119
20.435
21.2936
22.1887
23.1222
24.0957
25.111
26.1697
27.274
28.4259
29.6277
30.8815
32.1899
33.5556
34.9813
36.47
38.0248
39.6492
41.3467
43.1211
44.9765
46.9173
48.948
51.0736
53.2995
55.6314
58.0752
60.6375
63.3255
66.1467
69.1093
72.2222
75.495
78.9379
82.5626
86.381
90.4068
94.6552
99.1418
103.885
108.905
114.223
119.864
125.854
132.225
139.009
146.246
153.978
162.251
171.118
180.638
190.871
201.881
213.73
226.446
240.06
254.394
269.372
283.2
297.068
298.079
6.88431
7.22578
7.0781
7.18368
7.44603
7.69333
7.93076
8.19364
8.48268
8.78995
9.11448
9.45784
9.82047
10.2023
10.6036
11.0249
11.4667
11.9295
12.414
12.921
13.4511
14.0052
14.5842
15.189
15.8206
16.4802
17.1687
17.8874
18.6375
19.4201
20.2371
21.0895
21.979
22.9073
23.876
24.887
25.9422
27.0436
28.1935
29.3941
30.6479
31.9574
33.3254
34.7549
36.249
37.8108
39.444
41.1524
42.9398
44.8106
46.7693
48.8207
50.97
53.2228
55.5851
58.0632
60.6641
63.395
66.264
69.2798
72.4515
75.7896
79.305
83.0095
86.9162
91.0398
95.3958
100.002
104.877
110.043
115.522
121.342
127.531
134.122
141.151
148.66
156.693
165.301
174.538
184.462
195.13
206.6
218.89
232.038
245.768
260.105
272.772
286.203
283.208
6.62576
6.93727
6.8238
6.91109
7.14032
7.36515
7.58291
7.82349
8.08921
8.37333
8.67441
8.99365
9.33151
9.68795
10.0631
10.4575
10.8715
11.3057
11.7607
12.2371
12.7356
13.2572
13.8026
14.3727
14.9685
15.591
16.2414
16.9207
17.6303
18.3712
19.1451
19.9531
20.7971
21.6783
22.5987
23.56
24.5641
25.613
26.7089
27.854
29.0506
30.3015
31.6092
32.9766
34.4068
35.903
37.4687
39.1075
40.8234
42.6203
44.5029
46.4759
48.5443
50.7135
52.9892
55.3778
57.886
60.5208
63.2901
66.2021
69.266
72.4919
75.8898
79.4717
83.2503
87.2392
91.4538
95.9112
100.629
105.628
110.931
116.563
122.551
128.927
135.725
142.983
150.743
159.052
167.959
177.517
187.772
198.777
210.536
223.059
235.953
249.47
260.529
273.359
263.754
6.34789
6.62465
6.54236
6.61573
6.81436
7.01702
7.21571
7.43479
7.67766
7.93877
8.2164
8.51145
8.82434
9.15503
9.50368
9.87064
10.2563
10.6613
11.0859
11.5311
11.9973
12.4854
12.9962
13.5306
14.0895
14.6739
15.2849
15.9236
16.5913
17.2891
18.0184
18.7805
19.5772
20.4097
21.28
22.1896
23.1406
24.1348
25.1744
26.2616
27.3986
28.5882
29.8328
31.1353
32.4986
33.926
35.4207
36.9864
38.6269
40.3462
42.1486
44.0387
46.0215
48.1022
50.2864
52.5801
54.9898
57.5225
60.1858
62.9874
65.9364
69.042
72.3146
75.7653
79.4064
83.2505
87.3131
91.6098
96.1578
100.977
106.088
111.515
117.284
123.424
129.966
136.947
144.404
152.378
160.914
170.055
179.842
190.312
201.423
213.175
225.063
237.567
246.458
258.42
240.817
6.05075
6.28977
6.23491
6.2979
6.46856
6.64952
6.82965
7.02803
7.24854
7.48682
7.74109
8.01187
8.29962
8.60431
8.92603
9.2651
9.62188
9.99691
10.3906
10.8037
11.2367
11.6905
12.1657
12.6634
13.1843
13.7294
14.2998
14.8966
15.521
16.1741
16.8573
17.572
18.3196
19.1016
19.9197
20.7757
21.6713
22.6086
23.5895
24.6162
25.691
26.8164
27.9948
29.2292
30.5223
31.8773
33.2974
34.7861
36.347
37.9842
39.7017
41.504
43.396
45.3826
47.4693
49.6618
51.9664
54.3898
56.9393
59.6224
62.4475
65.4238
68.561
71.8694
75.3611
79.0481
82.9447
87.0657
91.4274
96.048
100.947
106.147
111.672
117.548
123.804
130.473
137.587
145.182
153.296
161.965
171.208
181.038
191.369
202.225
212.895
224.163
230.275
241.171
214.655
5.7345
5.93454
5.90286
5.95821
6.10359
6.26352
6.42555
6.60396
6.80264
7.01834
7.24932
7.49587
7.75834
8.03676
8.3312
8.64197
8.96939
9.31391
9.67604
10.0563
10.4554
10.8739
11.3128
11.7727
12.2545
12.7593
13.288
13.8416
14.4214
15.0285
15.6641
16.3297
17.0266
17.7564
18.5207
19.3212
20.1595
21.0376
21.9576
22.9216
23.9317
24.9903
26.1
27.2634
28.4833
29.7627
31.1049
32.513
33.9908
35.5419
37.1705
38.8808
40.6774
42.5652
44.5493
46.6353
48.8292
51.1374
53.5669
56.1245
58.8186
61.6579
64.6512
67.8086
71.1409
74.66
78.379
82.3116
86.4728
90.8797
95.5499
100.504
105.763
111.35
117.291
123.613
130.346
137.517
145.157
153.281
161.888
170.978
180.422
190.259
199.482
209.35
212.051
221.872
181.653
5.3993
5.56086
5.54788
5.59756
5.7203
5.85999
6.00435
6.16344
6.34084
6.53421
6.742
6.96431
7.20142
7.45337
7.72025
8.00232
8.2999
8.61339
8.94327
9.29011
9.65447
10.037
10.4385
10.8598
11.3015
11.7649
12.2507
12.76
13.2939
13.8536
14.4403
15.0553
15.7
16.3759
17.0845
17.8276
18.6067
19.4238
20.2807
21.1796
22.1227
23.1121
24.1504
25.2401
26.384
27.5849
28.8458
30.1702
31.5613
33.0228
34.5586
36.173
37.87
39.6545
41.5315
43.5062
45.5843
47.7719
50.0755
52.5019
55.0589
57.7542
60.5964
63.5953
66.7607
70.1034
73.6356
77.3698
81.3196
85.5009
89.9294
94.6226
99.599
104.88
110.487
116.441
122.765
129.476
136.59
144.11
152.018
160.296
168.745
177.425
184.956
193.235
191.787
200.448
143.112
5.04554
5.17066
5.17186
5.21711
5.31973
5.44011
5.56719
5.70751
5.86409
6.0354
6.22012
6.41819
6.62981
6.85508
7.09408
7.34705
7.6143
7.89618
8.19322
8.50591
8.83476
9.18046
9.54379
9.92538
10.3261
10.7469
11.1886
11.6523
12.139
12.6498
13.1861
13.7489
14.3397
14.96
15.611
16.2946
17.0124
17.7662
18.5578
19.3892
20.2625
21.18
22.1439
23.1568
24.2214
25.3403
26.5165
27.7532
29.0536
30.4213
31.8598
33.3733
34.9657
36.6416
38.4057
40.263
42.2188
44.279
46.4494
48.7368
51.148
53.6907
56.3726
59.2026
62.1898
65.3446
68.6773
72.1994
75.923
79.8621
84.0309
88.4444
93.1181
98.0694
103.314
108.868
114.744
120.949
127.487
134.349
141.487
148.862
156.181
163.547
169.091
175.542
169.052
176.452
102.592
4.67366
4.76584
4.77689
4.8183
4.90314
5.00521
5.11537
5.23741
5.37365
5.52314
5.68487
5.8587
6.04475
6.24314
6.45399
6.6775
6.91397
7.16378
7.42735
7.70524
7.99789
8.30598
8.63024
8.9713
9.32998
9.70714
10.1037
10.5206
10.9589
11.4196
11.904
12.4131
12.9485
13.5115
14.1034
14.7258
15.3803
16.0686
16.7927
17.5544
18.3556
19.1986
20.0857
21.0191
22.0014
23.0353
24.1236
25.2693
26.4755
27.7455
29.0829
30.4914
31.9748
33.5376
35.1839
36.9186
38.7469
40.6737
42.705
44.8467
47.1052
49.4876
52.0009
54.6529
57.4521
60.4077
63.529
66.8264
70.3102
73.9926
77.8853
82.0001
86.3489
90.9445
95.7968
100.915
106.306
111.968
117.889
124.045
130.352
136.752
142.841
148.804
152.137
156.72
144.383
150.889
52.5819
4.28449
4.3483
4.36519
4.4028
4.47193
4.55676
4.65035
4.75449
4.87076
4.99868
5.13751
5.28707
5.44743
5.61876
5.80117
5.99487
6.20014
6.41736
6.64692
6.88936
7.14513
7.41487
7.69919
7.99885
8.31453
8.64708
8.99739
9.36637
9.75497
10.1643
10.5955
11.0496
11.528
12.032
12.563
13.1223
13.7117
14.3328
14.9872
15.677
16.4039
17.17
17.9776
18.8289
19.7263
20.6723
21.6696
22.7211
23.8297
24.9986
26.2311
27.5309
28.9015
30.3469
31.8712
33.4787
35.1744
36.9631
38.8499
40.8403
42.9404
45.1562
47.4947
49.9624
52.5669
55.3161
58.2182
61.2816
64.5152
67.9287
71.5309
75.3306
79.3363
83.5565
87.9963
92.6578
97.5382
102.625
107.888
113.284
118.694
124.041
128.787
133.236
134.098
136.713
117.639
123.386
-2.58399
3.87907
3.91994
3.93913
3.97249
4.02768
4.09634
4.17368
4.2602
4.35681
4.46335
4.57931
4.70454
4.8391
4.98314
5.13682
5.30031
5.47392
5.65804
5.85301
6.05934
6.27749
6.50807
6.75169
7.00902
7.28074
7.56765
7.87058
8.19042
8.52811
8.88465
9.26113
9.65867
10.0785
10.5218
10.99
11.4845
12.0066
12.5583
13.1409
13.7563
14.4063
15.0929
15.8182
16.5844
17.3936
18.2484
19.1513
20.1049
21.1121
22.1758
23.2991
24.4855
25.7382
27.061
28.4577
29.9325
31.4896
33.1334
34.8687
36.7006
38.6344
40.6756
42.8298
45.1033
47.5025
50.0337
52.7041
55.5202
58.4887
61.6167
64.9111
68.3776
72.0204
75.8429
79.8443
84.0188
88.3528
92.8215
97.3756
101.952
106.386
110.587
113.848
116.639
114.691
115.184
88.3075
93.4629
-57.6047
3.45889
3.48264
3.5012
3.52952
3.57218
3.62568
3.6871
3.75618
3.83337
3.91868
4.01179
4.11262
4.22122
4.33776
4.46241
4.59535
4.73691
4.88742
5.04727
5.21691
5.39683
5.58754
5.78961
6.00374
6.2306
6.47088
6.72542
6.99508
7.28068
7.58324
7.90373
8.24325
8.60301
8.9841
9.38796
9.81578
10.2689
10.7492
11.2578
11.7968
12.3677
12.9724
13.6129
14.2913
15.0096
15.7703
16.5756
17.4282
18.3305
19.2855
20.2961
21.3651
22.496
23.6921
24.9567
26.2939
27.7072
29.2007
30.779
32.4461
34.2067
36.0658
38.0281
40.0988
42.2831
44.5866
47.0146
49.5719
52.2639
55.0951
58.0694
61.1886
64.4539
67.8625
71.4072
75.0744
78.8397
82.6657
86.4834
90.2098
93.6316
96.652
98.3602
99.479
94.5218
93.083
57.6279
63.1315
-125.594
3.0259
3.03828
3.05388
3.07617
3.10736
3.1466
3.19236
3.24411
3.30202
3.36616
3.4364
3.51273
3.5952
3.68399
3.77929
3.88134
3.99041
4.10684
4.23102
4.36335
4.50432
4.65444
4.81427
4.98439
5.16543
5.35816
5.56327
5.78155
6.01391
6.26124
6.52449
6.80466
7.10289
7.42024
7.75796
8.11737
8.49983
8.90667
9.33951
9.79987
10.2894
10.8099
11.3632
11.9512
12.576
13.2397
13.9446
14.6929
15.4873
16.33
17.224
18.172
19.1769
20.2418
21.37
22.5646
23.8292
25.1672
26.5825
28.0789
29.6605
31.3309
33.0946
34.9555
36.9178
38.9856
41.1628
43.4525
45.8574
48.3797
51.0203
53.7774
56.6475
59.6222
62.6876
65.8214
68.9878
72.1354
75.1734
77.9987
80.3413
82.1056
82.1387
81.4834
73.2191
69.7568
24.816
30.553
-190.717
2.58264
2.58877
2.59971
2.61491
2.6353
2.66102
2.69132
2.72577
2.76443
2.8074
2.8547
2.90634
2.96247
3.02325
3.08889
3.15963
3.23575
3.31762
3.40556
3.5
3.60137
3.71015
3.82689
3.95214
4.08652
4.23069
4.38532
4.5512
4.72912
4.91991
5.12447
5.34379
5.57891
5.83095
6.10089
6.39004
6.69962
7.03111
7.38574
7.76514
8.17084
8.60446
9.06777
9.56249
10.0906
10.6541
11.2549
11.8954
12.5776
13.304
14.0771
14.8994
15.7735
16.7021
17.6882
18.7346
19.8443
21.0205
22.2662
23.5848
24.9794
26.4533
28.0096
29.6514
31.3816
33.2029
35.1173
37.1262
39.2303
41.429
43.7192
46.0959
48.5508
51.0693
53.6302
56.2022
58.7367
61.1674
63.38
65.251
66.4445
66.8797
65.1092
62.6056
50.705
45.2853
-10.0843
-3.51405
-255.186
2.13226
2.13598
2.14115
2.14836
2.15831
2.17097
2.18593
2.20303
2.22239
2.24413
2.26835
2.29515
2.32468
2.35715
2.39279
2.43184
2.47461
2.52141
2.5726
2.62857
2.68971
2.7565
2.82944
2.90903
2.99585
3.09053
3.19374
3.30613
3.42848
3.56159
3.70629
3.86344
4.03409
4.21913
4.41974
4.63695
4.87202
5.12621
5.40079
5.69718
6.01685
6.36132
6.73219
7.13113
7.5599
8.02034
8.51434
9.04388
9.61104
10.2179
10.8668
11.5599
12.2996
13.0883
13.9285
14.8226
15.7734
16.7832
17.8549
18.9908
20.1936
21.4655
22.809
24.2259
25.718
27.2864
28.9315
30.6529
32.4487
34.3159
36.2484
38.2369
40.2681
42.3222
44.3701
46.3712
48.265
49.9709
51.3497
52.2617
52.2983
51.4171
47.8247
43.5713
27.9335
21.0434
-45.1473
-36.3233
-337.954
1.67844
1.68167
1.6804
1.67908
1.67871
1.67848
1.67807
1.67769
1.67761
1.67796
1.67889
1.68057
1.68322
1.68705
1.69231
1.69927
1.70822
1.71945
1.73332
1.7502
1.77047
1.79456
1.82292
1.85606
1.89449
1.93876
1.98948
2.04732
2.11295
2.18715
2.27063
2.36425
2.46886
2.5855
2.71503
2.85865
3.0173
3.19226
3.38465
3.59589
3.82724
4.08013
4.35605
4.65652
4.98315
5.33762
5.72164
6.13703
6.58562
7.06932
7.59006
8.14993
8.75092
9.39505
10.0845
10.8214
11.6077
12.4456
13.3369
14.2838
15.2878
16.3505
17.4732
18.6568
19.9015
21.2071
22.5722
23.9943
25.4693
26.9906
28.5492
30.1317
31.7191
33.2853
34.7937
36.1936
37.4108
38.3496
38.8431
38.7351
37.533
35.2457
29.6772
23.5459
3.82206
-4.79011
-82.5289
-72.5854
-399.645
1.22515
1.22769
1.21975
1.20979
1.19897
1.18571
1.16975
1.1517
1.13196
1.11069
1.08806
1.06434
1.03978
1.01461
0.989115
0.96355
0.938207
0.913391
0.889423
0.866648
0.845428
0.826128
0.809209
0.795067
0.784231
0.777199
0.774516
0.776777
0.784618
0.798651
0.819679
0.848432
0.88572
0.932318
0.98928
1.05743
1.13791
1.23165
1.33995
1.46379
1.60452
1.76342
1.94182
2.14112
2.36276
2.60827
2.87917
3.17705
3.50356
3.8604
4.24921
4.67174
5.12971
5.62483
6.15885
6.73339
7.35009
8.01036
8.71573
9.46727
10.2661
11.1127
12.0073
12.9497
13.9388
14.9728
16.0484
17.1611
18.3042
19.4681
20.6402
21.8027
22.9315
23.9939
24.945
25.7241
26.2431
26.3913
25.9723
24.8175
22.3381
18.6253
11.0058
3.04726
-20.9664
-30.9525
-120.442
-108.571
-464.351
0.776049
0.775931
0.761585
0.743192
0.721569
0.694819
0.663021
0.627055
0.587359
0.544132
0.497636
0.448185
0.396066
0.341541
0.284892
0.22639
0.166322
0.104985
0.0426741
-0.020316
-0.0836389
-0.146914
-0.209806
-0.271881
-0.332743
-0.391918
-0.448884
-0.503146
-0.554157
-0.601254
-0.643832
-0.681229
-0.712682
-0.737339
-0.754526
-0.763286
-0.762727
-0.751813
-0.729636
-0.695042
-0.646925
-0.584145
-0.505489
-0.40969
-0.295472
-0.161493
-0.00639859
0.171228
0.372783
0.599705
0.853438
1.13537
1.44696
1.78958
2.16448
2.57293
3.01601
3.49471
4.00978
4.56179
5.15072
5.77647
6.43821
7.13447
7.86293
8.61993
9.40067
10.1983
11.0036
11.8045
12.5843
13.3207
13.9851
14.5383
14.9269
15.0806
14.8977
14.2537
12.9218
10.7279
6.97669
1.87817
-7.78596
-17.411
-45.7157
-56.5443
-157.502
-142.8
-543.912
0.334359
0.328381
0.308415
0.281927
0.248817
0.207908
0.159871
0.10563
0.0455909
-0.0199783
-0.0907269
-0.1663
-0.24638
-0.330673
-0.418894
-0.510762
-0.606018
-0.704388
-0.805596
-0.909333
-1.01532
-1.12328
-1.23283
-1.34365
-1.45533
-1.56749
-1.67971
-1.79157
-1.90244
-2.01188
-2.11933
-2.22414
-2.32566
-2.4233
-2.5162
-2.60359
-2.68471
-2.75868
-2.82454
-2.8814
-2.92826
-2.96405
-2.98774
-2.99822
-2.99436
-2.97499
-2.93893
-2.885
-2.81201
-2.71881
-2.6042
-2.46706
-2.30635
-2.12105
-1.91026
-1.67321
-1.40929
-1.11816
-0.799682
-0.45413
-0.0820939
0.315201
0.735871
1.17716
1.63524
2.10504
2.57981
3.05033
3.50479
3.92765
4.29875
4.59182
4.77152
4.79249
4.59252
4.09158
3.17267
1.69746
-0.595132
-3.88166
-8.97963
-15.5342
-27.3816
-38.7596
-71.6181
-83.548
-196.132
-180.11
-594.239
-0.0971717
-0.112924
-0.137163
-0.171392
-0.216957
-0.272883
-0.337647
-0.410571
-0.491401
-0.57978
-0.675215
-0.777309
-0.885745
-1.00021
-1.12042
-1.24609
-1.37698
-1.51283
-1.65338
-1.79841
-1.94764
-2.1008
-2.25761
-2.41781
-2.58107
-2.74702
-2.91529
-3.0855
-3.25725
-3.4301
-3.60345
-3.77689
-3.94984
-4.12163
-4.29167
-4.45925
-4.62365
-4.7842
-4.94008
-5.09031
-5.23417
-5.37074
-5.49905
-5.61819
-5.72717
-5.82503
-5.91082
-5.98351
-6.04221
-6.08589
-6.11379
-6.12499
-6.1188
-6.09463
-6.05192
-5.99046
-5.91011
-5.81118
-5.6941
-5.55983
-5.41
-5.24672
-5.07288
-4.89266
-4.71099
-4.5349
-4.37308
-4.237
-4.14107
-4.10385
-4.14945
-4.30897
-4.62232
-5.14254
-5.93969
-7.10409
-8.76789
-11.0814
-14.3418
-18.7192
-25.1696
-33.1438
-47.1861
-60.1577
-97.5765
-110.149
-233.592
-215.869
-650.502
-0.516192
-0.545868
-0.572498
-0.614269
-0.673589
-0.745515
-0.827532
-0.91963
-1.02182
-1.13351
-1.25409
-1.38316
-1.52039
-1.66545
-1.81806
-1.97796
-2.1449
-2.31867
-2.49905
-2.68582
-2.87878
-3.07776
-3.28248
-3.49267
-3.70813
-3.92858
-4.15369
-4.3832
-4.61673
-4.85386
-5.09427
-5.33749
-5.58302
-5.83028
-6.07892
-6.32824
-6.5775
-6.82632
-7.07381
-7.31934
-7.56219
-7.8016
-8.03672
-8.26687
-8.49118
-8.7088
-8.91907
-9.12112
-9.31436
-9.498
-9.67151
-9.83436
-9.98622
-10.1266
-10.2558
-10.3737
-10.4809
-10.5782
-10.6667
-10.7483
-10.8252
-10.9006
-10.9785
-11.0642
-11.1643
-11.2874
-11.444
-11.6481
-11.9163
-12.2707
-12.7389
-13.3566
-14.1697
-15.2368
-16.6366
-18.469
-20.8813
-24.0338
-28.2622
-33.7198
-41.5168
-50.863
-67.0861
-81.4973
-123.37
-136.296
-269.585
-250.519
-709.234
-0.920779
-0.968306
-0.99499
-1.04437
-1.11903
-1.20799
-1.30785
-1.41972
-1.54388
-1.67948
-1.82573
-1.98224
-2.14871
-2.32482
-2.51026
-2.70482
-2.90824
-3.12038
-3.34107
-3.57009
-3.80732
-4.05262
-4.30576
-4.56663
-4.835
-5.11071
-5.3935
-5.68316
-5.97943
-6.28197
-6.59041
-6.90456
-7.22398
-7.54824
-7.87686
-8.20936
-8.54533
-8.88422
-9.22545
-9.56835
-9.91241
-10.257
-10.6014
-10.9452
-11.2876
-11.628
-11.9658
-12.3006
-12.6319
-12.9592
-13.2822
-13.6007
-13.9148
-14.2244
-14.5301
-14.8325
-15.1326
-15.4317
-15.7319
-16.0354
-16.3457
-16.6669
-17.004
-17.3637
-17.754
-18.1855
-18.6704
-19.225
-19.8689
-20.6273
-21.5321
-22.6228
-23.9509
-25.5822
-27.6043
-30.1262
-33.3111
-37.3287
-42.5566
-49.1235
-58.3132
-69.0536
-87.5342
-103.386
-149.764
-163.233
-305.651
-286.786
-741.39
-1.30925
-1.37801
-1.40204
-1.45946
-1.55126
-1.65834
-1.77666
-1.90899
-2.05583
-2.21592
-2.38834
-2.5728
-2.76898
-2.97654
-3.19523
-3.4248
-3.66513
-3.91604
-4.17738
-4.44905
-4.73099
-5.02307
-5.32519
-5.63723
-5.95912
-6.29072
-6.63186
-6.98241
-7.34217
-7.7109
-8.08852
-8.4747
-8.86908
-9.27134
-9.68132
-10.0986
-10.5226
-10.9531
-11.3895
-11.8316
-12.2787
-12.7304
-13.1863
-13.6459
-14.1087
-14.5743
-15.0423
-15.5125
-15.9846
-16.4583
-16.9338
-17.4112
-17.8908
-18.3731
-18.8588
-19.3493
-19.846
-20.3508
-20.8667
-21.3965
-21.9444
-22.5157
-23.1166
-23.755
-24.4406
-25.1851
-26.0032
-26.9135
-27.938
-29.1053
-30.4506
-32.0183
-33.8658
-36.0647
-38.7109
-41.9222
-45.8775
-50.7527
-56.9699
-64.6192
-75.1783
-87.2292
-107.917
-124.983
-175.651
-189.257
-339.205
-320.958
-781.963
-1.68021
-1.77268
-1.79114
-1.8575
-1.96847
-2.09471
-2.23215
-2.38571
-2.55598
-2.74118
-2.94035
-3.15323
-3.37957
-3.61904
-3.87137
-4.13635
-4.41392
-4.70397
-5.00634
-5.32109
-5.64815
-5.98743
-6.33896
-6.70269
-7.07861
-7.46669
-7.86679
-8.27895
-8.70301
-9.13891
-9.58646
-10.0456
-10.5161
-10.9978
-11.4902
-11.9934
-12.507
-13.0306
-13.5642
-14.1072
-14.6593
-15.2202
-15.7896
-16.3672
-16.9527
-17.546
-18.1468
-18.755
-19.3707
-19.994
-20.6251
-21.2644
-21.9129
-22.5712
-23.2406
-23.9228
-24.6199
-25.3345
-26.07
-26.8302
-27.6201
-28.446
-29.3153
-30.2371
-31.2223
-32.2846
-33.441
-34.7115
-36.1216
-37.703
-39.4937
-41.5435
-43.9144
-46.6839
-49.9569
-53.8586
-58.5838
-64.3114
-71.5116
-80.2215
-92.1335
-105.429
-128.279
-146.409
-201.104
-214.788
-370.732
-354.466
-818.087
-2.03239
-2.15
-2.15991
-2.23664
-2.36894
-2.51534
-2.67263
-2.84827
-3.04276
-3.25374
-3.4802
-3.72205
-3.97902
-4.2508
-4.53713
-4.83791
-5.15307
-5.48258
-5.8264
-6.18453
-6.55708
-6.94399
-7.34536
-7.76128
-8.19176
-8.63685
-9.09663
-9.57109
-10.0602
-10.5641
-11.0826
-11.6158
-12.1634
-12.7255
-13.3019
-13.8926
-14.4974
-15.1159
-15.7482
-16.394
-17.0531
-17.7254
-18.4107
-19.1088
-19.8198
-20.5434
-21.2799
-22.0292
-22.7919
-23.568
-24.3583
-25.1635
-25.9847
-26.8232
-27.6807
-28.5592
-29.4615
-30.3909
-31.3512
-32.3473
-33.3851
-34.4716
-35.6156
-36.8273
-38.1196
-39.5075
-41.0098
-42.6492
-44.4538
-46.4583
-48.7045
-51.2467
-54.1521
-57.5047
-61.417
-66.0219
-71.531
-78.1233
-86.3222
-96.0988
-109.384
-123.908
-148.936
-168.099
-226.659
-240.704
-401.239
-388.941
-828.748
-2.36471
-2.50753
-2.50606
-2.59516
-2.75101
-2.91851
-3.09642
-3.29507
-3.51461
-3.752
-4.00633
-4.27762
-4.56565
-4.87013
-5.19081
-5.5277
-5.88073
-6.24993
-6.63543
-7.03725
-7.45553
-7.89036
-8.34196
-8.8104
-9.29583
-9.79843
-10.3183
-10.8557
-11.4106
-11.9831
-12.5733
-13.1813
-13.8071
-14.4508
-15.1123
-15.7916
-16.4888
-17.2036
-17.9362
-18.6865
-19.4543
-20.2398
-21.0429
-21.8636
-22.7021
-23.5585
-24.4331
-25.3261
-26.2382
-27.1701
-28.1223
-29.0963
-30.0933
-31.1151
-32.1639
-33.2421
-34.3531
-35.5007
-36.6894
-37.9252
-39.2145
-40.5656
-41.9879
-43.4934
-45.0961
-46.8132
-48.6653
-50.6769
-52.8791
-55.3096
-58.0137
-61.0495
-64.4893
-68.4232
-72.9714
-78.2725
-84.5553
-91.9939
-101.17
-111.966
-126.582
-142.221
-169.33
-189.291
-251.316
-265.517
-428.425
-422.701
-846.529
-2.67602
-2.84282
-2.82748
-2.9316
-3.11322
-3.30263
-3.502
-3.72467
-3.97007
-4.23453
-4.51728
-4.8185
-5.138
-5.47548
-5.83081
-6.20403
-6.59517
-7.00436
-7.43169
-7.87738
-8.34164
-8.82464
-9.32669
-9.84799
-10.3888
-10.9493
-11.5298
-12.1305
-12.7516
-13.3934
-14.0561
-14.7397
-15.4446
-16.1708
-16.9185
-17.6875
-18.4783
-19.2909
-20.1252
-20.9815
-21.8598
-22.7603
-23.6831
-24.6284
-25.5966
-26.5879
-27.6028
-28.6419
-29.7061
-30.7961
-31.9131
-33.0585
-34.2342
-35.4422
-36.6851
-37.9662
-39.2888
-40.6577
-42.0781
-43.5565
-45.1005
-46.719
-48.423
-50.2253
-52.1415
-54.1902
-56.3942
-58.7801
-61.381
-64.238
-67.4001
-70.9289
-74.9015
-79.4125
-84.5901
-90.5773
-97.6201
-105.882
-116.009
-127.776
-143.674
-160.317
-189.396
-209.964
-275.01
-289.323
-452.514
-452.256
-871.536
-2.96534
-3.15339
-3.12228
-3.24467
-3.45421
-3.66629
-3.88806
-4.13583
-4.40794
-4.70011
-5.01181
-5.34343
-5.69476
-6.06558
-6.45582
-6.86559
-7.29503
-7.74437
-8.21375
-8.70351
-9.21394
-9.74533
-10.2981
-10.8724
-11.4689
-12.0876
-12.7291
-13.3938
-14.0818
-14.7935
-15.5293
-16.2895