/*--------------------------------*- C++ -*----------------------------------*\
  =========                 |
  \\      /  F ield         | OpenFOAM: The Open Source CFD Toolbox
   \\    /   O peration     | Website:  https://openfoam.org
    \\  /    A nd           | Version:  11
     \\/     M anipulation  |
\*---------------------------------------------------------------------------*/
FoamFile
{
    format      ascii;
    class       surfaceScalarField;
    location    "200";
    object      phi;
}
// * * * * * * * * * * * * * * * * * * * * * * * * * * * * * * * * * * * * * //

dimensions      [0 3 -1 0 0 0 0];

internalField   nonuniform List<scalar> 
62845
(
422160
-1.89581e+06
1.90623e+06
396604
-1.80388e+06
1.82944e+06
379278
-1.71316e+06
1.73049e+06
359703
-1.62686e+06
1.64644e+06
342121
-1.54475e+06
1.56233e+06
324731
-1.46671e+06
1.4841e+06
308558
-1.39232e+06
1.4085e+06
293014
-1.32162e+06
1.33716e+06
278280
-1.25438e+06
1.26911e+06
264244
-1.1905e+06
1.20453e+06
250961
-1.12982e+06
1.1431e+06
238372
-1.07217e+06
1.08475e+06
226327
-1.01733e+06
1.02937e+06
214999
-965362
976689
204122
-915864
926741
193930
-868988
879180
184154
-824327
834104
174879
-782034
791308
166139
-741851
750591
157821
-703629
711947
149859
-667364
675325
142391
-633003
640471
135255
-600243
607379
128488
-569233
576000
122078
-539769
546179
115965
-511750
517862
110189
-485221
490997
104691
-459983
465481
99508.9
-436081
441263
94486.5
-413265
418287
89814.2
-391732
396404
85334.5
-371230
375710
81088.8
-351807
356053
77070.3
-333313
337332
73223.1
-315795
319642
69589.5
-299152
302786
66113.6
-283380
286856
62839.2
-268382
271657
59711.4
-254148
257276
56734.6
-240648
243625
53903.8
-227836
230667
51214.2
-215675
218364
48651.5
-204128
206691
46216.3
-193176
195611
43895
-182776
185097
41688.2
-172908
175114
39578.4
-163540
165650
37576.2
-154656
156659
35664.2
-146217
148129
33844.1
-138214
140034
32108.3
-130614
132349
30454
-123403
125058
28869.6
-116554
118138
27366.1
-110062
111566
25927.8
-103895
105333
24552.3
-98035.5
99411
23242.1
-92482
93792.2
21986.4
-87205.3
88461
20792
-82194.1
83388.5
19648.3
-77437.6
78581.3
18553.6
-72920.3
74015
17506.3
-68627
69674.3
16504.8
-64551.2
65552.6
15547.7
-60677.8
61635
14629.1
-56996.1
57914.6
13751.8
-53495.5
54372.7
12906.4
-50165.4
51010.8
12095.6
-46999.3
47810.1
11322
-43990.8
44764.3
10576.5
-41117.4
41863
9857.83
-38384.7
39103.3
9168.61
-35778.1
36467.3
8507.51
-33295
33956.1
7866.05
-30917.5
31559
7250.08
-28646.5
29262.4
6652.03
-26473.7
27071.7
6074.12
-24388.7
24966.6
5513.6
-22386.4
22946.9
4968.74
-20458.1
21003
4437.7
-18597
19128
3918.76
-16795
17313.9
3410.07
-15044
15552.7
2910.04
-13335.7
13835.7
2416.5
-11661.9
12155.4
1927.85
-10012.5
10501.2
1444.58
-8383.37
8866.63
963.236
-6759.12
7240.45
504.999
-5170.26
5628.47
-3532.61
4037.59
513439
-1.87248e+06
487688
-1.77813e+06
463675
-1.68915e+06
440605
-1.60379e+06
418567
-1.52271e+06
397490
-1.44563e+06
377506
-1.37234e+06
358477
-1.30259e+06
340375
-1.23628e+06
323220
-1.17334e+06
306896
-1.1135e+06
291383
-1.05665e+06
276714
-1.00266e+06
262716
-951364
249474
-902623
236869
-856383
224935
-812393
213553
-770653
202761
-731059
192543
-693411
182885
-657705
173622
-623740
164893
-591515
156536
-560876
148639
-531872
141191
-504301
134082
-478112
127301
-453202
120840
-429619
114789
-407214
109038
-385981
103532
-365725
98264.3
-346539
93322.9
-328372
88603.7
-311076
84149
-294697
79904.4
-279136
75862.3
-264340
72003.1
-250289
68355
-237000
64879.8
-224361
61577.1
-212372
58436.5
-200988
55445.5
-190185
52598.3
-179929
49892.1
-170202
47318.1
-160966
44863.2
-152201
42528.9
-143882
40302.5
-135988
38185.9
-128497
36166.7
-121384
34247.1
-114634
32410.4
-108226
30659.1
-102144
28995.3
-96371.7
27403.3
-90890
25885.3
-85687.3
24435.3
-80744
23051
-76053.3
21730.7
-71600.1
20468.5
-67364.8
19266.8
-63349.5
18111.3
-59522.3
17008.9
-55893.7
15957.9
-52444.5
14952.9
-49160.3
13988.3
-46034.8
13062.9
-43065.4
12175.3
-40229.8
11328
-37537.3
10515.7
-34965.8
9729.75
-32509.1
8976.27
-30164.1
8253.75
-27923.9
7556.23
-25776.2
6882.71
-23715.2
6231.74
-21735.5
5601.18
-19827.6
4989.15
-17985
4393.61
-16199.4
3812.53
-14462.9
3243.6
-12766.8
2685.04
-11103.4
2134.58
-9462.06
1591.89
-7840.7
1055.71
-6222.93
538.777
-4653.35
-2993.86
606409
-1.84141e+06
576420
-1.74814e+06
547596
-1.66033e+06
520168
-1.57637e+06
494078
-1.49662e+06
469186
-1.42074e+06
445498
-1.34865e+06
423004
-1.2801e+06
401633
-1.21491e+06
381310
-1.15302e+06
362025
-1.09421e+06
343705
-1.03833e+06
326331
-985284
309783
-934816
294092
-886932
279193
-841483
265066
-798266
251696
-757282
238916
-718280
226813
-681307
215270
-646162
204376
-612847
194019
-581157
184234
-551091
174860
-522498
165987
-495428
157554
-469679
149600
-445248
142018
-422037
134796
-399993
127879
-379064
121404
-359250
115267
-340402
109361
-322466
103827
-305542
98508.6
-289379
93451.7
-274079
88657.2
-259546
84135.5
-245768
79808.6
-232673
75703.2
-220255
71795.6
-208464
68077.7
-197270
64548
-186655
61188.8
-176570
57991.8
-167005
54952.6
-157927
52057.9
-149307
49304
-141129
46679.3
-133363
44179.9
-125998
41803.2
-119008
39536.9
-112368
37383.2
-106072
35325.7
-100086
33366.7
-94412.7
31503.7
-89027
29721.4
-83905
28026.1
-79048.8
26411.8
-74439.1
24863.3
-70051.6
23391.9
-65893.4
21982.8
-61940.4
20647.1
-58186.6
19366.2
-54612.8
18138.9
-51217.2
16967.4
-47988.9
15850.2
-44917.6
14778.1
-41993.3
13757.2
-39208.9
12778.4
-36558.6
11836.6
-34024.1
10937.9
-31610.3
10076.9
-29303.1
9245.56
-27092.6
8447.45
-24978
7680.28
-22948
6940.17
-20995.4
6225.52
-19112.9
5534.28
-17293.7
4863.49
-15528.7
4211.26
-13810.7
3575.03
-12130.5
2952.54
-10480.9
2341.53
-8851.05
1740.6
-7239.77
1150.5
-5632.83
576.924
-4079.78
-2416.93
698506
-1.80463e+06
663569
-1.71321e+06
630184
-1.62694e+06
598511
-1.54469e+06
568269
-1.46638e+06
539610
-1.39208e+06
512357
-1.3214e+06
486404
-1.25414e+06
461827
-1.19033e+06
438422
-1.12961e+06
416195
-1.07199e+06
395137
-1.01727e+06
375028
-965174
356049
-915837
337980
-868863
320853
-824356
304550
-781963
289056
-741788
274403
-703627
260478
-667382
247217
-632901
234655
-600285
222729
-569230
211377
-539739
200639
-511760
190401
-485191
180704
-459981
171488
-436032
162743
-413292
154410
-391659
146531
-371185
139048
-351767
131901
-333255
125136
-315701
118693
-299099
112617
-283303
106801
-268263
101291
-254035
96049.1
-240526
91074.5
-227699
86339.6
-215520
81838
-203963
77564.9
-192997
73492.4
-182582
69626.8
-172704
65951.4
-163329
62449.5
-154425
59122.8
-145980
55953.9
-137960
52942.2
-130351
50077.5
-123133
47345.4
-116275
44749.4
-109772
42271.9
-103595
39919.7
-97734
37672.1
-92165.2
35531.6
-86886.4
33499.8
-81873.2
31557.3
-77106.3
29706
-72587.8
27948.5
-68294.2
26265.5
-64210.3
24663.7
-60338.6
23128.5
-56651.4
21671
-53155.4
20280.9
-49827.1
18952.6
-46660.5
17680.6
-43645.6
16470.9
-40783.6
15310.6
-38048.7
14201.8
-35449.8
13143.2
-32965.5
12125.7
-30592.8
11151.5
-28328.9
10221.4
-26162.5
9327.21
-24083.9
8467.49
-22088.3
7640.63
-20168.5
6843.94
-18316.2
6074.7
-16524.5
5330.95
-14784.9
4609.24
-13089
3907.65
-11428.9
3222.96
-9796.19
2552.79
-8180.89
1895.4
-6582.38
1251.12
-4988.56
619.35
-3448.03
-1797.61
788577
-1.7627e+06
748923
-1.67355e+06
711103
-1.58912e+06
675208
-1.5088e+06
641155
-1.43233e+06
608683
-1.35961e+06
577845
-1.29056e+06
548616
-1.22492e+06
520818
-1.16253e+06
494431
-1.10323e+06
469391
-1.04695e+06
445518
-993402
422943
-942599
401454
-894348
381072
-848480
361687
-804971
343325
-763601
325872
-724335
309262
-687018
293531
-651651
278613
-617983
264394
-586066
250913
-555749
238156
-526983
226012
-499615
214469
-473648
203518
-449030
193098
-425613
183199
-403393
173813
-382273
164930
-362302
156393
-343230
148394
-325256
140775
-308081
133480
-291805
126553
-276375
120035
-261745
113806
-247807
107893
-234612
102267
-222073
96920.4
-210174
91843.4
-198886
87015.2
-188169
82426.8
-177994
78059.8
-168337
73909.3
-159179
69963.4
-150479
66207.6
-142224
62637.8
-134390
59243
-126957
56008.9
-119899
52933.8
-113200
50003.9
-106842
47222.1
-100813
44567.1
-95079
42045.7
-89643.8
39641.6
-84482.3
37348.1
-79579.8
35171.6
-74929.8
33092.6
-70508.8
31113.1
-66314.7
29226.9
-62324.1
27427.8
-58539.5
25713.9
-54937.5
24079
-51520.6
22517.5
-48265.5
21031.6
-45174.6
19615.4
-42229.4
18255.4
-39423.7
16961.9
-36755.2
15725.5
-34213.4
14540.6
-31780.6
13413.3
-29465.4
12330.9
-27246.6
11293.8
-25125.4
10299.6
-23089.7
9346.06
-21134.7
8429.16
-19251.6
7547.33
-17434.4
6697.05
-15674.2
5875.34
-13963.2
5079.64
-12293.3
4306.69
-10656
3553.42
-9042.92
2816.7
-7444.17
2093.74
-5859.42
1384.94
-4279.75
682.103
-2745.2
-1115.5
876450
-1.716e+06
832181
-1.62928e+06
790142
-1.54708e+06
750148
-1.46881e+06
712207
-1.39439e+06
676161
-1.32356e+06
641916
-1.25632e+06
609385
-1.19239e+06
578440
-1.13158e+06
549103
-1.07389e+06
521221
-1.01906e+06
494809
-966990
469641
-917432
445805
-870512
423139
-825815
401607
-783439
381149
-743144
361760
-704946
343355
-668612
325831
-634127
309220
-601372
293460
-570306
278486
-540775
264235
-512732
250698
-486078
237912
-460862
225666
-436785
214101
-414047
203108
-392400
192726
-371892
182749
-352325
173416
-333898
164422
-316262
155908
-299567
147866
-283763
140193
-268702
132880
-254431
125975
-240903
119390
-228027
113139
-215822
107202
-204236
101553
-193237
96183.5
-182799
91083.7
-172894
86234.8
-163488
81619.3
-154563
77236.9
-146097
73068.9
-138056
69104.5
-130425
65329
-123181
61742.7
-116313
58331
-109789
55081.1
-103592
51989.6
-97721.3
49052.8
-92142.2
46251.4
-86842.4
43586.5
-81817.4
41051.8
-77045
38635.7
-72513.7
36335.9
-68209.1
34141.6
-64120.3
32059.4
-60241.9
30069.9
-56550.1
28179.8
-53047.5
26370.3
-49711.1
24652.2
-46547.4
23007.1
-43529.5
21441.4
-40663.7
19949.4
-37931.7
18525.3
-35331.1
17159.9
-32848
15862.9
-30483.6
14621.2
-28223.7
13433.1
-26058.5
12294.3
-23986.6
11204.9
-22000.3
10160.7
-20090.5
9158.62
-18249.5
8195.33
-16471.1
7267.82
-14746.7
6372.93
-13068.3
5507.33
-11427.7
4667.73
-9816.41
3850.24
-8225.44
3051.3
-6645.24
2267.59
-5075.73
1495.47
-3507.63
718.249
-1968
-397.297
961798
-1.66479e+06
913111
-1.5806e+06
866876
-1.50085e+06
823043
-1.42497e+06
781296
-1.35264e+06
741737
-1.284e+06
704112
-1.21869e+06
668402
-1.15668e+06
634540
-1.09772e+06
602291
-1.04164e+06
571729
-988503
542642
-937903
515066
-889855
488862
-844307
464013
-800966
440360
-759786
417938
-720721
396607
-683615
376389
-648394
357184
-614923
338997
-583184
321654
-552963
305199
-524320
289567
-497101
274748
-471258
260629
-446743
247250
-423406
234551
-401349
222473
-380321
211005
-360424
200141
-341461
189771
-323528
179939
-306430
170636
-290264
161757
-274884
153343
-260288
145345
-246433
137726
-233284
130506
-220806
123644
-208961
117120
-197712
110919
-187036
105029
-176909
99427.9
-167293
94102.7
-158163
89044.3
-149505
84230
-141282
79655.6
-133482
75303.4
-126073
71169
-119047
67231.9
-112375
63493.2
-106050
59934.5
-100033
56549.3
-94336.2
53325.9
-88918.8
50261.4
-83777.9
47344.1
-78900.1
44566.6
-74267.5
41922.5
-69869.7
39409.7
-65696.2
37016.4
-61727.1
34732.5
-57958
32560
-54377.6
30492.6
-50980.1
28524.2
-47742.7
26640.2
-44663.4
24855.4
-41744.8
23147.5
-38955.8
21522.9
-36307
19967.7
-33775.9
18492
-31372.3
17075
-29066.6
15726.3
-26875
14436.1
-24768.4
13204.8
-22755.3
12026.2
-20821.7
10896.9
-18961.2
9815.07
-17167.7
8776.02
-15432.1
7777.43
-13748.1
6815.49
-12106.4
5886.73
-10499
4987.16
-8916.84
4113.17
-7351.46
3259.75
-5791.82
2423.31
-4239.28
1593.45
-2677.77
747.668
-1122.23
350.375
1.04448e+06
-1.60918e+06
991621
-1.52774e+06
941406
-1.45063e+06
893667
-1.37723e+06
848401
-1.30737e+06
805392
-1.24099e+06
764528
-1.17783e+06
725724
-1.11787e+06
688869
-1.06087e+06
653873
-1.00664e+06
620628
-955257
589095
-906370
559156
-859917
530652
-815803
503601
-773916
477996
-734181
453610
-696335
430485
-660491
408490
-626399
387631
-594063
367775
-563329
348970
-534158
331102
-506452
314097
-480097
298007
-455168
282665
-431401
268163
-408903
254338
-387524
241233
-367216
228789
-347980
216946
-329618
205697
-312279
195034
-295767
184900
-280130
175239
-265223
166092
-251142
157400
-237741
149141
-225026
141290
-212956
133828
-201498
126742
-190626
120006
-180300
113607
-170510
107519
-161205
101740
-152384
96243.4
-144008
91015
-136054
86046.2
-128513
81328.6
-121356
76835.9
-114554
72569.2
-108109
68499.6
-101980
64641.2
-96175.1
60966.1
-90661.1
57472.5
-85425.1
54151.8
-80457.3
50987.7
-75736
47979.2
-71259
45114.4
-67004.9
42390.2
-62972
39796.5
-59133.4
37325.8
-55487.3
34976.6
-52028.4
32738.2
-48741.7
30604.1
-45608.6
28577.1
-42636.3
26642.1
-39809.9
24801.9
-37115.6
23042.4
-34547.6
21373.7
-32107.2
19774.3
-29773
18254
-27546.3
16800
-25421
15415.1
-23383.5
14090.7
-21431
12824.9
-19555.9
11614.5
-17750.9
10454.8
-16008
9344.04
-14321.4
8276.91
-12681
7251.12
-11080.6
6262.15
-9509.99
5305.83
-7960.54
4377.83
-6423.47
3473.28
-4887.28
2587.26
-3353.27
1704.75
-1795.26
841.98
-259.512
1192.31
1.12419e+06
-1.54928e+06
1.06732e+06
-1.47087e+06
1.01327e+06
-1.39659e+06
961954
-1.32592e+06
913231
-1.25865e+06
866870
-1.19463e+06
822951
-1.13391e+06
781148
-1.07607e+06
741466
-1.02118e+06
703867
-969045
668036
-919426
634082
-872416
601820
-827656
571185
-785167
542101
-744832
514458
-706539
488234
-670111
463310
-635567
439678
-602766
417162
-571547
395855
-542022
375547
-513849
356314
-487219
338058
-461841
320660
-437770
304203
-414945
288536
-393236
273695
-372683
259522
-353044
246108
-334566
233393
-316903
221272
-300158
209735
-284230
198826
-269221
188485
-254882
178602
-241258
169236
-228375
160337
-216127
151885
-204504
143851
-193464
136218
-182994
128967
-173049
122069
-163612
115521
-154657
109292
-146155
103370
-138086
97748.5
-130433
92399
-123164
87313.6
-116270
82482
-109722
77885.3
-103512
73517.9
-97613.1
69359.2
-92016.4
65409.2
-86711.1
61649.2
-81665.1
58069.1
-76877.3
54670.4
-72337.3
51435.5
-68024.2
48357.9
-63927.3
45427.5
-60041.7
42641.2
-56347.1
39988.5
-52834.5
37462.2
-49502.2
35056.2
-46335.7
32772.8
-43325.2
30593
-40456.5
28515.1
-37732
26537.2
-35137.7
24656.9
-32667.3
22860.9
-30311.1
21151
-28063.1
19521.5
-25916.8
17963
-23862.6
16477.9
-21898.4
15060.5
-20013.5
13705.8
-18201.2
12410.8
-16455.8
11171.6
-14768.8
9983.79
-13133.5
8844.61
-11541.8
7749.09
-9985.09
6693.46
-8454.36
5673.15
-6940.23
4683.26
-5433.58
3718.19
-3922.22
2771.13
-2406.2
1827.23
-851.345
923.396
644.307
2115.72
1.20096e+06
-1.48534e+06
1.14023e+06
-1.41014e+06
1.08251e+06
-1.33887e+06
1.02764e+06
-1.27105e+06
975562
-1.20657e+06
926093
-1.14516e+06
879099
-1.08692e+06
834508
-1.03148e+06
792107
-978783
751851
-928789
713687
-881262
677329
-836058
642865
-793191
610167
-752469
579075
-713740
549506
-676970
521511
-642115
494863
-608918
469595
-577499
445599
-547551
422756
-519180
401101
-492194
380532
-466650
360975
-442284
342471
-419266
324818
-397292
308097
-376515
292151
-356737
277118
-338011
262743
-320191
249116
-303277
236179
-287221
223925
-271975
212197
-257493
201089
-243775
190592
-230761
180578
-218361
171070
-206619
162028
-195462
153441
-184877
145280
-174833
137526
-165295
130159
-156245
123159
-147656
116504
-139500
110184
-131766
104170
-124419
98455.4
-117449
93021.5
-110836
87859.8
-104561
82948.5
-98600.8
78278.2
-92942.8
73844.1
-87582.3
69621.7
-82488.7
65605.4
-77648.8
61791.1
-73063
58163
-68709.2
54704.4
-64565.6
51424.3
-60647.2
48293.9
-56911.3
45318.6
-53371.9
42495.1
-50011
39803.6
-46810.7
37237.6
-43769.6
34798.9
-40886.5
32478
-38135.6
30268
-35522.1
28163.2
-33032.8
26157.5
-30661.6
24244.9
-28398.6
22423.9
-26242
20688.4
-24181.3
19036.2
-22210.4
17458.3
-20320.5
15952.4
-18507.6
14514.8
-16763.6
13140.5
-15081.5
11826.5
-13454.8
10568.3
-11875.3
9361.41
-10334.9
8201.99
-8825.67
7085.6
-7337.98
6007.19
-5861.83
4961.29
-4387.7
3941.39
-2902.32
2940.82
-1405.64
1945.05
144.416
986.413
1602.9
3102.1
1.27442e+06
-1.41755e+06
1.21003e+06
-1.34574e+06
1.14877e+06
-1.27761e+06
1.0906e+06
-1.21288e+06
1.03531e+06
-1.15128e+06
982811
-1.09266e+06
932932
-1.03704e+06
885545
-984091
840636
-933874
797873
-886026
757285
-840675
718798
-797571
682199
-756592
647406
-717676
614418
-680751
583108
-645661
553352
-612359
525090
-580656
498211
-550621
472743
-522083
448533
-494969
425556
-469217
403644
-444739
382957
-421596
363217
-399526
344524
-378599
326756
-358747
309907
-339888
293829
-321933
278601
-304963
264119
-288795
250375
-273477
237362
-258962
224972
-245103
213195
-231997
201985
-219551
191354
-207729
181252
-196518
171655
-185865
162542
-175763
153874
-166166
145646
-157066
137818
-148417
130382
-140221
123320
-132437
116606
-125052
110225
-118038
104159
-111383
98395.1
-105073
92911.7
-99077.3
87702.7
-93391.9
82751.2
-87991.2
78042.6
-82873.7
73562
-78008.1
69305.2
-73392
65256.3
-69014.1
61403
-64855.9
57749.7
-60912.3
54261.7
-57159.2
50951.3
-53600.9
47798.3
-50219
44798.3
-47011
41948.8
-43961.2
39239.9
-41060.7
36650.4
-38297
34196
-35681.2
31858.1
-33184.2
29630.5
-30805.2
27507.4
-28538.5
25490.7
-26381.9
23570.2
-24321.5
21740.5
-22351.7
19992.4
-20462.3
18328.8
-18656.9
16741.7
-16920.6
15227.8
-15249.7
13782.1
-13635.9
12400.9
-12073.6
11079.3
-10553.8
9813.69
-9069.31
8599.56
-7611.54
7431.53
-6169.96
6304.94
-4735.23
5214.08
-3296.84
4150.9
-1839.14
3107.3
-362.035
2073.29
1178.44
1069.13
2607.06
4171.25
1.34451e+06
-1.34599e+06
1.27653e+06
-1.27777e+06
1.21198e+06
-1.21306e+06
1.1506e+06
-1.15151e+06
1.09227e+06
-1.09295e+06
1.03693e+06
-1.03733e+06
984295
-984397
934346
-934141
886852
-886380
841800
-840974
798968
-797843
758333
-756937
719720
-717978
683068
-681024
648243
-645927
615144
-612561
583702
-580918
553901
-550855
525566
-522285
498651
-495168
473066
-469385
448827
-444978
425807
-421719
403897
-399686
383080
-378709
363348
-358867
344600
-339998
326717
-322006
309846
-305062
293772
-288889
278492
-273515
263998
-258983
250184
-245147
237109
-232029
224675
-219563
212859
-207735
201642
-196512
190978
-185853
180845
-175732
171222
-166140
162075
-157019
153382
-148373
145133
-140168
137285
-132373
129823
-124976
122736
-117964
116001
-111304
109601
-104982
103518
-98989.8
97736.4
-93296
92233.8
-87889.3
87010.3
-82767.8
82041.7
-77905
77317.7
-73284.2
72830.4
-68904.7
68562.8
-64746.5
64502.2
-60795.4
60638.6
-57048.7
56968.6
-53489.1
53480.5
-50112.8
50163.3
-46901.8
47003.5
-43851.2
43998.6
-40956.3
41137.2
-38199.4
38424.8
-35584.5
35835.5
-33091.9
33371.1
-30719.8
31031
-28465.1
28804.2
-26311.7
26681.1
-24258.7
24659.6
-22300.1
22735.5
-20427.6
20905.2
-18632
19159.8
-16911.4
17496.7
-15257.5
15910.1
-13663.2
14397
-12122.8
12952.4
-10629
11572.1
-9173.43
10251.5
-7748.73
8985.66
-6345.74
7770.79
-4955.1
6600.54
-3564.99
5468.99
-2165.31
4365.83
-735.996
3286.23
717.552
2217.73
2246.94
1171.5
3653.26
5342.72
1.41104e+06
-1.27103e+06
1.33976e+06
-1.20649e+06
1.27195e+06
-1.14524e+06
1.20759e+06
-1.08715e+06
1.14642e+06
-1.03178e+06
1.08831e+06
-979216
1.0331e+06
-929186
980710
-881751
930864
-836535
883600
-793709
838688
-752931
795961
-714210
755460
-677478
717002
-642566
680433
-609357
645764
-577892
612799
-547952
581469
-519525
551700
-492516
523484
-466951
496666
-442567
471165
-419477
446986
-397540
424006
-376705
402171
-356875
381424
-338120
361746
-320321
343080
-303339
325274
-287256
308361
-271976
292393
-257546
277155
-243745
262672
-230664
248923
-218279
235866
-206506
223465
-195334
211681
-184729
200481
-174653
189852
-165104
179738
-156026
170141
-147421
161016
-139248
152343
-131495
144104
-124134
136280
-117152
128837
-110522
121765
-104231
115046
-98263.6
108655
-92598.8
102580
-87221.3
96811.7
-82120.8
91328.4
-77284.5
86112
-72688.6
81153
-68325.3
76439.2
-64190.8
71958.7
-60266
67696.8
-56533.5
63647.7
-52999.6
59794.1
-49635.6
56127.2
-46445.9
52640.7
-43415.4
49330.1
-40540.6
46176.4
-37802.6
43177
-35200
40323.7
-32731.2
37611.7
-30380
35031.6
-28139.7
32574.3
-26007.9
30235.5
-23973
28008.9
-22032.1
25888.6
-20179.8
23871.2
-18410.2
21949.2
-16710
20117.6
-15079.8
18372.1
-13511.9
16707.7
-11998.8
15119.8
-10534.9
13603.1
-9112.19
12153.7
-7724.06
10766.6
-6361.68
9436.83
-5015.93
8158.87
-3677.14
6926.81
-2332.93
5733.96
-972.464
4566.76
431.212
3424.81
1859.51
2283.12
3388.63
1162.49
4773.89
6505.24
1.47378e+06
-1.19266e+06
1.39934e+06
-1.13206e+06
1.32862e+06
-1.07452e+06
1.26135e+06
-1.01989e+06
1.19747e+06
-967894
1.13678e+06
-918531
1.07917e+06
-871576
1.02437e+06
-826948
972401
-784569
922950
-744258
876036
-706017
831512
-669685
789179
-635145
748941
-602328
710775
-571191
674468
-541585
640039
-513523
607342
-486829
576303
-461477
546759
-437408
518753
-414561
492124
-392847
466839
-372256
442813
-352679
420028
-334090
398359
-316451
377713
-299674
358189
-283815
339653
-268720
322012
-254336
305208
-240742
289311
-227848
274210
-215563
259848
-203918
246206
-192864
233243
-182371
220927
-172412
209229
-162956
198110
-153984
187548
-145465
177511
-137384
167978
-129716
158917
-122434
150308
-115524
142121
-108966
134351
-102752
126963
-96842.6
119939
-91239.7
113261
-85921.3
106921
-80881.1
100893
-76092.9
95159.1
-71550.6
89711.1
-67240.5
84537.2
-63151.4
79616.6
-59270.2
74930.9
-55580.3
70484.4
-52087
66249.6
-48764.8
62229.8
-45615.8
58407.5
-42623.6
54770.4
-39778.3
51307.9
-37078.1
48019.7
-34514.4
44895.5
-32075.8
41918.3
-29754
39087.9
-27549.6
36395.7
-25447.4
33833.5
-23445.7
31398.7
-21538.2
29080.9
-19714.4
26875.8
-17974.8
24773.8
-16308.1
22773.7
-14709.8
20869.5
-13175.7
19055.4
-11697.8
17326.4
-10269.9
15677.6
-8886.15
14105.1
-7539.65
12602.8
-6221.75
11166.4
-4925.3
9790.97
-3640.53
8470.79
-2356.97
7199.14
-1061.3
5967.27
259.397
4768.63
1629.83
3597.87
3030.27
2420.8
4565.7
1259.83
5934.83
7765.05
1.53268e+06
-1.11129e+06
1.45522e+06
-1.0546e+06
1.38168e+06
-1.00098e+06
1.31176e+06
-949969
1.24535e+06
-901481
1.18226e+06
-855438
1.12233e+06
-811644
1.06538e+06
-770006
1.01126e+06
-730449
959895
-692888
911113
-657236
864737
-623309
820706
-591114
778910
-560532
739172
-531453
701476
-503889
665617
-477664
631571
-452782
599278
-429183
568576
-406706
539391
-385376
511721
-365178
485414
-345949
460444
-327710
436703
-310348
414137
-293886
392790
-278327
372442
-263467
353094
-249371
334743
-235985
317340
-223340
300762
-211269
285032
-199833
270084
-188970
255887
-178667
242402
-168885
229586
-159596
217410
-150780
205845
-142419
194855
-134475
184417
-126946
174492
-119790
165066
-113008
156104
-106563
147595
-100457
139504
-94660.6
131814
-89152.7
124512
-83937
117574
-78983.4
110974
-74280.8
104703
-69822.3
98739.5
-65587.3
93073.9
-61574.9
87688.8
-57766.3
82566.4
-54147.9
77703.3
-50717.1
73077.2
-47460.9
68678.8
-44366.5
64498.7
-41435.7
60524.4
-38649.2
56743.7
-35997.6
53149.9
-33484.3
49734.7
-31099.2
46486.3
-28827.4
43397.1
-26664.8
40457.3
-24609.9
37662.3
-22652.4
35007.6
-20791
32478.3
-19008.9
30072.8
-17308.8
27784.1
-15686.1
25606.9
-14130.9
23535.8
-12638.7
21563.8
-11203.8
19686.3
-9820.25
17898.6
-8482.21
16195.1
-7182.67
14571
-5915.5
13021.5
-4672.31
11541.8
-3445.56
10126.3
-2225.02
8769.55
-1000.23
7463.31
244.952
6203.25
1519.45
4979.28
2853.81
3785.74
4223.82
2582.9
5768.56
1392.18
7125.56
9157.25
1.58743e+06
-1.02688e+06
1.50733e+06
-974500
1.43114e+06
-924785
1.35878e+06
-877612
1.29e+06
-832694
1.22463e+06
-790072
1.16255e+06
-749565
1.1036e+06
-711054
1.04756e+06
-674407
994389
-639720
943794
-606642
895803
-575318
850194
-545505
806901
-517239
765754
-490307
726702
-464837
689559
-440521
654325
-417548
620838
-395696
589031
-374899
558843
-355188
530157
-336492
502870
-318662
477017
-301856
452444
-285775
429091
-270534
406893
-256128
385789
-242363
365778
-229360
346811
-217019
328732
-205261
311569
-194106
295267
-183531
279784
-173487
265072
-163955
251092
-154905
237815
-146319
225199
-138165
213211
-130430
201826
-123090
191005
-116125
180724
-109509
170950
-103234
161674
-97286.6
152853
-91635.9
144463
-86270.5
136502
-81192
128932
-76366.7
121735
-71786.8
114899
-67445
108397
-63319.9
102226
-59416.1
96352.9
-55701.9
90773.1
-52186.6
85469.1
-48843.8
80427.6
-45675.7
75633.7
-42666.9
71079.9
-39812.7
66748.7
-37104.5
62626.4
-34526.9
58713.3
-32084.5
54995.8
-29766.8
51453.3
-27556.7
48085.9
-25460.1
44890.4
-23469.3
41849.1
-21568.6
38953.3
-19756.6
36198.4
-18036.1
33584
-16394.6
31095.9
-14820.8
28728.1
-13318.2
26475.3
-11878.1
24331
-10494.5
22291.1
-9163.84
20348.8
-7877.99
18499.1
-6632.49
16737.2
-5420.76
15057.5
-4235.83
13455.3
-3070.16
11925.6
-1915.82
10461.7
-761.091
9057.6
403.827
7707.35
1595.18
6405.33
2821.46
5137.21
4121.93
3899.15
5461.86
2647.2
7020.51
1406.12
8366.61
10563.3
1.63816e+06
-939940
1.55543e+06
-891777
1.47689e+06
-846245
1.40217e+06
-802891
1.33126e+06
-761784
1.26384e+06
-722649
1.19974e+06
-685471
1.13891e+06
-650219
1.08115e+06
-616643
1.02622e+06
-584793
974094
-554516
924542
-525765
877475
-498438
832746
-472510
790310
-447871
750005
-424532
711706
-402222
675352
-381195
640783
-361126
607980
-342096
576792
-324000
547157
-306858
519052
-290557
492332
-275136
466928
-260371
442883
-246488
419943
-233188
398200
-220620
377557
-208717
357901
-197362
339257
-186617
321541
-176391
304719
-166709
288730
-157498
273542
-148767
259114
-140477
245404
-132609
232384
-125144
220008
-118054
208252
-111334
197077
-104951
186465
-98896.7
176382
-93151.1
166795
-87699.6
157684
-82525
149034
-77620.8
140809
-72967
132990
-68547.8
125562
-64359.1
118504
-60386.7
111801
-56617
105420
-53035
99364.6
-49646.3
93601.2
-46423.2
88126.4
-43369
82924.7
-40474.1
77978.4
-37720.7
73274.3
-35108.6
68802.2
-32632.4
64556.3
-30280.9
60519.9
-28048.2
56676.2
-25923.1
53027.7
-23908.2
49553.6
-21985.9
46253.7
-20169.4
43113.2
-18428.1
40131.7
-16775.2
37293.2
-15197.6
34591.7
-13693
32025.4
-12254.5
29583.6
-10876.4
27260.7
-9555.26
25051.8
-8285.54
22948.7
-7060.75
20947.4
-5876.7
19041.9
-4726.98
17227
-3605.88
15497.3
-2506.16
13848.1
-1420.95
12272.2
-339.905
10765.6
745.541
9321.68
1847.71
7934.28
2982.58
6595.24
4160.51
5289.34
5427.83
4013.08
6738.14
2718.31
8315.29
1432.27
9652.66
11995.6
1.68444e+06
-850428
1.59948e+06
-806813
1.51863e+06
-765394
1.44188e+06
-726139
1.36891e+06
-688820
1.29962e+06
-653355
1.23378e+06
-619630
1.17122e+06
-587659
1.11179e+06
-557212
1.05529e+06
-528302
1.0017e+06
-500920
950728
-474795
902352
-450062
856424
-426582
812767
-404214
771271
-383036
731926
-362878
694463
-343731
658930
-325593
625150
-308316
593130
-291980
562693
-276421
533737
-261601
506202
-247600
480129
-234299
455316
-221675
431787
-209659
409429
-198262
388160
-187448
367973
-177176
348781
-167425
330564
-158173
313249
-149394
296809
-141059
281179
-133136
266338
-125637
252233
-118504
238832
-111743
226103
-105325
214006
-99237.1
202511
-93456.3
191593
-87978.6
181215
-82772.7
171355
-77840.1
161991
-73160.4
153089
-68718.7
144627
-64505.5
136587
-60508.1
128947
-56718.1
121688
-53127.8
114785
-49714.8
108230
-46480
101994
-43409.8
96069.9
-40499.1
90443.9
-37743
85088.6
-35118.8
80003.8
-32635.9
75168.3
-30273.1
70576.7
-28040.8
66208.4
-25912.6
62052
-23891.7
58103.9
-21975
54350.7
-20155
50790.6
-18425.9
47395.4
-16774.3
44170.8
-15203.5
41107.4
-13711.8
38194.6
-12284.8
35424.2
-10922.6
32790.2
-9620.53
30286.9
-8373.1
27905.5
-7173.85
25640.6
-6020.67
23486.5
-4906.61
21437.1
-3827.28
19487.2
-2777.1
17631.5
-1750.21
15863.9
-738.581
14179.1
263.817
12573.1
1266.09
11039.3
2279.36
9573.02
3313.99
8165.59
4390.01
6811.06
5515.03
5492.8
6746.08
4207.67
8023.27
2901.82
9621.13
1606.14
10948.3
13601.8
1.72643e+06
-758778
1.63926e+06
-719639
1.55652e+06
-682659
1.47786e+06
-647474
1.40305e+06
-614016
1.33206e+06
-582361
1.26458e+06
-552155
1.20043e+06
-523508
1.13953e+06
-496307
1.08172e+06
-470497
1.02672e+06
-445916
974527
-422605
924976
-400511
877851
-379457
833093
-359456
790568
-340511
750196
-322506
711886
-305421
675442
-289149
640854
-273729
607997
-259122
576724
-245148
547136
-232013
518946
-219411
492213
-207566
466767
-196229
442619
-185511
419678
-175321
397878
-165648
377178
-156476
357518
-147764
338838
-139493
321084
-131640
304216
-124191
288200
-117120
272978
-110416
258519
-104045
244783
-98007
231728
-92270
219323
-86831.8
207542
-81675.5
196343
-76779.6
185703
-72132.6
175592
-67729.9
165985
-63553.3
156853
-59586.8
148178
-55829.8
139937
-52267.7
132106
-48886.6
124659
-45681
117581
-42637
110859
-39757.9
104466
-37017
98397.9
-34430.6
92620.3
-31965.3
87137.9
-29636.4
81918.8
-27416.8
76964.7
-25319
72253.4
-23329.6
67771.6
-21430.8
63517.7
-19637.8
59476.2
-17933.6
55629.1
-16307.9
51970
-14766.8
48498.8
-13303
45196.6
-11901.3
42054.6
-10569.9
39070
-9300.16
36232.2
-8084.72
33534.4
-6922.73
30968.3
-5806.98
28529
-4734.62
26209.5
-3701.14
24004
-2701.16
21906.1
-1729.33
19910.4
-781.363
18010.7
149.415
16202.4
1069.77
14479.2
1987
12836.4
2908.86
11268.7
3847.08
9769.67
4813.05
8332.33
5827.36
6949.23
6898.13
5603.66
8091.66
4292.93
9334
2954.07
10960
1629.09
12273.3
15230.9
1.7638e+06
-665159
1.67482e+06
-630666
1.59023e+06
-598062
1.50988e+06
-567125
1.43357e+06
-537712
1.36098e+06
-509770
1.29206e+06
-483231
1.22658e+06
-458033
1.16439e+06
-434113
1.10526e+06
-411367
1.04913e+06
-389790
995838
-369309
945122
-349796
897015
-331350
851303
-313744
807884
-297092
766674
-281296
727441
-266189
690248
-251956
654897
-238377
621285
-225511
589439
-213301
559094
-201669
530369
-190686
502975
-180171
477011
-170265
452329
-160829
428885
-151877
406621
-143384
385467
-135321
365366
-127663
346264
-120392
328130
-113506
310900
-106960
294529
-100749
278966
-94853.5
264185
-89263.2
250139
-83960.7
236798
-78929.7
224126
-74159.4
212076
-69626.1
200630
-65333.1
189754
-61257
179421
-57396.3
169598
-53730.8
160273
-50261.2
151402
-46959.5
142974
-43839.5
134966
-40878.5
127357
-38072.3
120124
-35403.5
113246
-32880.2
106721
-30492.4
100508
-28217.1
94608.7
-26066.2
88998.7
-24026.5
83670.4
-22088.5
78603.5
-20252.1
73785.7
-18511.8
69214
-16859.1
64861.7
-15285.5
60726
-13797.8
56794.4
-12376.3
53060.5
-11033
49503.5
-9746.01
46129
-8526.76
42920
-7360.96