/*--------------------------------*- C++ -*----------------------------------*\
  =========                 |
  \\      /  F ield         | OpenFOAM: The Open Source CFD Toolbox
   \\    /   O peration     | Website:  https://openfoam.org
    \\  /    A nd           | Version:  11
     \\/     M anipulation  |
\*---------------------------------------------------------------------------*/
FoamFile
{
    format      ascii;
    class       surfaceScalarField;
    location    "200";
    object      phi;
}
// * * * * * * * * * * * * * * * * * * * * * * * * * * * * * * * * * * * * * //

dimensions      [0 3 -1 0 0 0 0];

internalField   nonuniform List<scalar> 
62845
(
48182.2
-552825
554367
45210.5
-525598
528569
43321.1
-499152
501041
40981.4
-474221
476560
39048.7
-450413
452345
37028.8
-427854
429874
35227
-406373
408175
33451.8
-385982
387758
31795.5
-366587
368243
30197.1
-348177
349775
28703.7
-330688
332182
27286.2
-314076
315493
25918.5
-298274
299641
24648.2
-283301
284571
23408.6
-269037
270277
22269
-255528
256668
21158.5
-242656
243767
20104.8
-230464
231518
19123.3
-218880
219861
18184.4
-207858
208797
17273.5
-197399
198310
16434.4
-187488
188327
15623.1
-178036
178847
14854.2
-169087
169856
14127.8
-160583
161309
13429
-152494
153192
12772.4
-144834
145490
12143.4
-137544
138173
11556.5
-130639
131226
10967.9
-124046
124634
10435.8
-117822
118354
9916.54
-111895
112414
9424.53
-106278
106770
8959.77
-100928
101393
8507.65
-95858.5
96310.7
8082.73
-91040.6
91465.5
7670.42
-86473.8
86886.1
7285.3
-82128.6
82513.7
6912.82
-78003.3
78375.8
6555.92
-74088.9
74445.8
6214.64
-70372
70713.3
5889.05
-66842
67167.6
5576.32
-63488.7
63801.4
5277.98
-60305.7
60604.1
4991.22
-57281.4
57568.1
4717.62
-54409.5
54683.1
4452.94
-51681.2
51945.9
4201.67
-49091.9
49343.2
3959.59
-46629.7
46871.8
3728.29
-44293.1
44524.4
3506.47
-42071.6
42293.5
3294.27
-39962.3
40174.5
3088.95
-37956.3
38161.6
2895.01
-36053.4
36247.4
2708.22
-34243.5
34430.3
2528.74
-32522
32701.5
2358.14
-30889
31059.6
2193.66
-29335.5
29500
2038.31
-27858.8
28014.1
1889.3
-26455.7
26604.7
1746.75
-25122.1
25264.6
1610.76
-23853.4
23989.4
1481.42
-22648.3
22777.6
1358.81
-21502.3
21624.9
1241.57
-20412.6
20529.9
1131.21
-19376.3
19486.7
1024.93
-18390.6
18496.8
924.233
-17453.8
17554.5
830.598
-16564.7
16658.4
741.227
-15716.1
15805.5
656.172
-14910.8
14995.8
576.929
-14144.6
14223.8
503.528
-13417.4
13490.8
433.195
-12723.7
12794
368.847
-12064.9
12129.2
308.006
-11439.1
11500
252.172
-10843.9
10899.7
200.872
-10278.5
10329.8
154.202
-9741.59
9788.26
111.918
-9231.8
9274.08
74.8939
-8749.02
8786.04
41.3488
-8292.21
8325.75
16.1052
-7859.06
7884.31
-9.04813
-7461.04
7486.19
-17.7933
-7063.57
7072.31
-35.4278
-6762.76
6780.39
-21.0755
-6343.42
6329.07
-42.1213
-6339.52
6360.57
-5653.1
5610.97
75094.7
-549145
71255.3
-521758
67737.9
-495635
64324.5
-470807
61111.5
-447200
58027.5
-424770
55122.3
-403468
52350
-383210
49716.7
-363954
47224.6
-345685
44852.2
-328316
42594.8
-311818
40469.8
-296149
38431.4
-281262
36510.1
-267116
34675.6
-253694
32943.1
-240923
31282.9
-228804
29709.6
-217307
28223.2
-206372
26823.7
-195999
25467
-186131
24196.9
-176766
22969.6
-167860
21814.1
-159427
20730.5
-151410
19689.4
-143792
18690.7
-136545
17734.4
-129683
16849.7
-123161
16007.2
-116980
15192.3
-111080
14405
-105491
13674.4
-100197
12971.3
-95155.4
12310.2
-90379.6
11676.6
-85840.2
11070.5
-81522.5
10487.5
-77420.3
9937.76
-73539.2
9411.22
-69845.4
8909.33
-66340.2
8430.73
-63010.1
7972.56
-59847.6
7534.92
-56843.7
7117.9
-53992.5
6720.15
-51283.5
6338.87
-48710.6
5975.65
-46266.5
5627.71
-43945.2
5296.61
-41740.6
4979.6
-39645.3
4678.24
-37654.9
4388.32
-35763.5
4111.42
-33966.6
3849.1
-32259.7
3597.15
-30637
3357.12
-29095.5
3127.68
-27629.3
2908.93
-26237
2700.97
-24914.1
2502.43
-23654.9
2314.85
-22460.7
2134
-21321.5
1962.81
-20241.4
1801.36
-19214.9
1648.26
-18237.5
1502.15
-17307.7
1363.07
-16425.6
1231.09
-15584.1
1107.68
-14787.4
991.45
-14028.3
879.631
-13305.6
775.114
-12619.2
677.94
-11967.7
586.357
-11347.6
500.58
-10758.1
420.721
-10198.6
346.632
-9667.5
278.265
-9163.43
216.019
-8686.77
159.153
-8235.34
110.103
-7810.02
64.1094
-7415.04
32.8314
-7032.29
-3.26697
-6726.66
-8.51546
-6338.18
-48.3553
-6299.69
-5701.45
102076
-543804
96938
-516620
92076
-490773
87432.4
-466164
83045
-442812
78861.5
-420587
74882.7
-399489
71108.5
-379436
67524.8
-360370
64116.9
-342277
60885
-325084
57814.2
-308748
54904.5
-293239
52126.5
-278484
49494.8
-264484
46994.6
-251194
44625.8
-238555
42388.3
-226567
40238.1
-215156
38204.4
-204338
36257.8
-194053
34427.5
-184301
32684.1
-175022
31042.3
-166218
29457.9
-157843
27960.4
-149912
26534.8
-142367
25195.7
-135206
23914
-128401
22689.4
-121937
21507.3
-115798
20411.5
-109984
19372.7
-104452
18361.8
-99186.3
17422.3
-94216
16510.5
-89467.8
15641.1
-84970.7
14816.9
-80698.2
14042.2
-76645.6
13295.3
-72792.3
12586.3
-69136.5
11909.5
-65663.4
11263.5
-62364
10649.7
-59233.8
10064
-56258
9504.87
-53433.4
8972.45
-50751
8463.93
-48202.1
7979.42
-45782
7516.11
-43481.8
7074.12
-41298.6
6653.56
-39224.8
6251.65
-37253
5869.94
-35381.8
5504.21
-33600.9
5156
-31911.5
4825.44
-30306.4
4508.27
-28778.3
4207.5
-27328.5
3921.75
-25951.2
3646.81
-24639.2
3387.06
-23395.1
3138.28
-22211.9
2904.83
-21088
2681.05
-20017.7
2466.98
-19000.8
2264.14
-18034.6
2072.56
-17116.1
1889.44
-16242.5
1717.68
-15412.4
1554.45
-14624.1
1398.41
-13872.3
1252.43
-13159.6
1115.14
-12481.9
983.912
-11836.5
860.795
-11224.4
745.556
-10642.9
637.337
-10090.4
536.232
-9566.4
442.255
-9069.45
355.179
-8599.7
274.814
-8154.98
202.704
-7737.91
135.701
-7348.04
82.5033
-6979.09
27.4138
-6671.57
3.42958
-6314.19
-52.5617
-6243.69
-5754.01
128858
-536986
122362
-510124
116187
-484598
110339
-460315
104751
-437224
99470.7
-415306
94454.9
-394473
89674.1
-374655
85157.7
-355854
80847
-337966
76756.7
-320994
72886.7
-304878
69178.2
-289530
65689.8
-274996
62362.6
-261157
59211.3
-248042
56206.4
-235550
53347.8
-223708
50650
-212459
48083.6
-201772
45633.9
-191603
43315.5
-181982
41113.6
-172820
39013.4
-164118
37029.5
-155859
35132.7
-148016
33337.3
-140571
31628.7
-133498
30006.9
-126779
28457.1
-120387
26994
-114334
25602.7
-108593
24268.7
-103118
23006.5
-97924.1
21801.5
-93011
20668.3
-88334.5
19577.5
-83880
18543.9
-79664.6
17558.7
-75660.4
16623.2
-71856.8
15730.4
-68243.6
14880.1
-64813.1
14072.4
-61556.4
13300.1
-58461.6
12566.2
-55524.1
11867.8
-52735
11200.7
-50083.9
10566.3
-47567.7
9960.4
-45176.1
9384.57
-42906
8835.97
-40750
8311.82
-38700.6
7813.63
-36754.9
7337.19
-34905.4
6885.47
-33149.2
6452.8
-31478.8
6040.7
-29894.3
5650.71
-28388.3
5277.14
-26955
4921.52
-25595.6
4585.36
-24303
4262.98
-23072.8
3957.31
-21906.3
3664.14
-20794.8
3387.79
-19741.3
3125.47
-18738.5
2875.8
-17784.9
2637.38
-16877.7
2413.13
-16018.3
2198.79
-15198
1995.84
-14421.2
1804.31
-13680.8
1621.44
-12976.7
1448.66
-12309.1
1286.82
-11674.6
1133.5
-11071.1
988.752
-10498.1
852.661
-9954.33
724.891
-9438.63
605.204
-8949.77
493.79
-8488.28
390.052
-8051.24
295.265
-7643.12
207.105
-7259.88
132.222
-6904.21
58.3696
-6597.72
15.158
-6270.98
-56.4863
-6172.05
-5810.5
155275
-528727
147455
-502303
140002
-477145
132935
-453248
126234
-430524
119843
-408915
113776
-388406
108033
-368912
102569
-350390
97385.4
-332782
92466.3
-316075
87768
-300179
83334.2
-285097
79106.1
-270768
75098.4
-257149
71281.4
-244225
67669.8
-231938
64234.1
-220272
60959.6
-209184
57860.7
-198673
54922.7
-188665
52116.2
-179176
49455.8
-170160
46941.3
-161603
44543.3
-153461
42261.8
-145734
40096.7
-138406
38033.3
-131434
36071.5
-124817
34211.2
-118526
32452.3
-112576
30751.1
-106892
29165.7
-101533
27652.3
-96410.8
26196.4
-91555.1
24812.5
-86950.6
23515
-82582.6
22270.5
-78420.2
21087.8
-74477.6
19960.9
-70730
18888.4
-67171.1
17869
-63793.6
16898.1
-60585.5
15974.5
-57538
15093.8
-54643.4
14256.1
-51897.3
13458.5
-49286.3
12698.2
-46807.4
11975.2
-44453.2
11286.8
-42217.6
10630.1
-40093.2
10005.1
-38075.7
9409.18
-36158.9
8843.73
-34339.9
8303.1
-32608.5
7790.23
-30966
7300.9
-29405
6833.73
-27921.2
6391.67
-26512.9
5969.04
-25173
5567.35
-23901.3
5185.21
-22690.6
4821.26
-21542.3
4475.54
-20449.1
4146.67
-19412.4
3833.28
-18425.1
3536.81
-17488.5
3255.89
-16596.8
2986.31
-15748.7
2732.33
-14944
2491.16
-14180
2261.45
-13451.1
2045.99
-12761.3
1840.62
-12103.7
1646.24
-11480.3
1462.47
-10887.4
1289.22
-10324.9
1125.6
-9790.71
971.815
-9284.85
827.358
-8805.31
691.969
-8352.9
565.695
-7924.97
448.982
-7526.41
340.468
-7151.37
245.353
-6809.1
153.212
-6505.58
91.766
-6209.54
5.8493
-6086.13
-5804.65
181297
-519090
172140
-493147
163456
-468461
155188
-444980
147348
-422683
139905
-401473
132831
-381332
126111
-362192
119715
-343994
113658
-326725
107896
-310312
102443
-294726
97240
-279894
92316.5
-265844
87628.3
-252461
83175.3
-239772
78942.5
-227705
74929.9
-216260
71122.7
-205377
67491.4
-195041
64050.6
-185224
60785.4
-175910
57681.2
-167056
54723.2
-158645
51911.3
-150649
49259.9
-143083
46710.6
-135857
44307
-129031
42019.9
-122530
39863.7
-116370
37780.1
-110492
35841.8
-104953
33961.2
-99652
32182.2
-94631.7
30504.5
-89877.4
28899.1
-85345.2
27365.8
-81049.3
25920.7
-76975
24539
-73095.9
23226.5
-69417.4
21978.8
-65923.4
20790.1
-62604.9
19659
-59454.4
18584
-56463
17560.8
-53620.2
16585.2
-50921.6
15658.5
-48359.6
14776.6
-45925.4
13936.4
-43613
13135.3
-41416.5
12374.8
-39332.7
11650.4
-37351.3
10959.5
-35468
10302.1
-33682.5
9678.25
-31984.7
9082.25
-30370
8515.63
-28838.4
7976.98
-27382.5
7463.5
-25999.4
6975.26
-24684.7
6509.44
-23435.5
6068.94
-22250.1
5648.09
-21121.5
5249.79
-20050.8
4868.38
-19031
4508.16
-18064.9
4163.49
-17143.8
3837.23
-16270.5
3527.98
-15439.4
3234.35
-14650.4
2953.57
-13899.3
2689.83
-13187.3
2438.97
-12510.4
2201.03
-11865.8
1974.94
-11254.2
1761.54
-10674
1559.74
-10123.1
1369.22
-9600.2
1189.5
-9105.12
1020.31
-8636.12
861.361
-8193.95
712.479
-7776.09
574.03
-7387.96
444.849
-7022.19
329.235
-6693.48
218.735
-6395.08
137.441
-6128.24
37.0451
-5985.74
-5767.61
206816
-508108
196359
-482690
186433
-458534
177025
-435572
168059
-413718
159566
-392979
151486
-373252
143819
-354525
136550
-336726
129621
-319796
123060
-303751
116808
-288475
110881
-273966
105247
-260211
99908.2
-247122
94819.2
-234683
89994.8
-222881
85405.5
-211671
81051.1
-201022
76916.9
-190907
73002.6
-181310
69264.3
-172172
65716.5
-163508
62344.4
-155273
59147.8
-147453
56097.4
-140032
53207.8
-132967
50464.2
-126287
47851.9
-119918
45370.7
-113889
43020.7
-108142
40772.5
-102705
38640.7
-97520.2
36625.2
-92616.2
34696.7
-87948.9
32869.8
-83518.3
31131.3
-79310.8
29472.5
-75316.2
27900.5
-71523.9
26405.3
-67922.2
24982.4
-64500.5
23628.8
-61251.4
22341.8
-58167.4
21116.8
-55238.1
19951.2
-52454.6
18843.4
-49813.8
17787.6
-47303.9
16783.9
-44921.8
15828.1
-42657.2
14920.1
-40508.4
14054.1
-38466.7
13231.8
-36529
12448.8
-34685
11703.7
-32937.4
10993.7
-31274.7
10318.9
-29695.1
9676.36
-28195.9
9064.79
-26770.9
8482.76
-25417.4
7930.32
-24132.3
7404.65
-22909.8
6902.94
-21748.4
6426.64
-20645.2
5974.36
-19598.5
5544.69
-18601.4
5133.43
-17653.6
4746.23
-16756.6
4376.08
-15900.4
4025.77
-15089.1
3691.15
-14315.8
3376.38
-13584.5
3074.52
-12885.5
2789.74
-12225.6
2519.17
-11595.2
2263.45
-10998.5
2020.98
-10431.5
1791.26
-9893.37
1574.29
-9383.24
1369.06
-8899.89
1175.52
-8442.58
993.229
-8011.66
822.028
-7604.89
661.8
-7227.73
512.153
-6872.54
375.804
-6557.13
246.443
-6265.72
144.573
-6026.37
29.7092
-5870.87
-5737.9
231794
-495799
220083
-470979
208960
-447411
198384
-424996
188354
-403688
178826
-383451
169770
-364197
161172
-345927
153001
-328555
145244
-312038
137870
-296377
130878
-281483
124241
-267329
117913
-253883
111908
-241118
106228
-229003
100812
-217465
95675.3
-206534
90788.6
-196136
86151.5
-186270
81734.7
-176893
77552.7
-167990
73576
-159531
69789.9
-151487
66208.8
-143872
62788.8
-136612
59559
-129738
56475.4
-123204
53552.5
-116995
50775.7
-111112
48130.2
-105496
45616
-100191
43233
-95137.2
40966.4
-90349.6
38801.7
-85784.2
36753.4
-81470
34805.4
-77362.8
32953.3
-73464.1
31191.1
-69761.8
29514.6
-66245.7
27922.3
-62908.1
26406.8
-59735.9
24966.7
-56727.3
23594.7
-53866.1
22292.4
-51152.2
21052.4
-48573.8
19871.8
-46123.3
18749.4
-43799.3
17683.5
-41591.3
16667.1
-39492
15701.6
-37501.2
14779.8
-35607.2
13906.1
-33811.3
13073.3
-32104.7
12281.5
-30482.9
11529.2
-28942.9
10812.3
-27478.9
10130.6
-26089.3
9481.48
-24768.3
8864.87
-23515.7
8277.93
-22322.9
7719.32
-21189.8
7189.01
-20114.9
6684.2
-19093.7
6203.51
-18120.7
5748.32
-17198.4
5314.44
-16322.7
4903.27
-15489.2
4510.61
-14696.5
4140.64
-13945.8
3786.42
-13230.3
3452.1
-12551.1
3133.49
-11907
2832.42
-11294.1
2546.41
-10712.4
2275.32
-10160.4
2018.56
-9636.62
1775.3
-9139.98
1545.45
-8670.05
1328.15
-8225.28
1123.18
-7806.69
930.177
-7411.89
748.817
-7046.37
578.779
-6702.51
422.161
-6400.52
274.259
-6117.82
151.119
-5903.23
22.2498
-5742.01
-5715.65
256127
-482178
243194
-458046
230905
-435123
219237
-413328
208159
-392610
197611
-372904
187624
-354210
178110
-336412
169082
-319527
160526
-303482
152369
-288219
144639
-273753
137291
-259981
130313
-246904
123687
-234492
117386
-222701
111408
-211487
105724
-200850
100335
-190746
95195
-181131
90334.4
-172033
85694.2
-163350
81303.3
-155140
77132.6
-147316
73152.5
-139892
69392.2
-132852
65807.6
-126153
62413.4
-119809
59165.5
-113747
56093.1
-108040
53181.4
-102585
50401.2
-97410.7
47752.4
-92488.4
45249.4
-87846.7
42877.7
-83412.5
40605.1
-79197.3
38451.9
-75209.6
36405
-71417.2
34460
-67816.8
32609.5
-64395.2
30850.6
-61149.2
29179
-58064.2
27587.3
-55135.6
26075.5
-52354.3
24636.4
-49713.1
23267.1
-47204.5
21967.5
-44823.8
20729.1
-42560.9
19551.8
-40414
18432.7
-38372.9
17367.6
-36436.1
16354.9
-34594.6
15390.5
-32846.9
14474.4
-31188.5
13602.1
-29610.6
12771
-28111.8
11982.4
-26690.3
11232.1
-25339
10518.7
-24054.9
9839.36
-22836.3
9194.03
-21677.6
8579.92
-20575.7
7995.63
-19530.6
7439.75
-18537.8
6913.68
-17594.6
6411.79
-16696.6
5934.07
-15845
5480.53
-15035.7
5051.16
-14267.1
4641.75
-13536.4
4253.69
-12842.2
3885.56
-12183
3534.63
-11556.1
3202.36
-10961.9
2887.38
-10397.5
2588.43
-9861.44
2305.27
-9353.46
2037.05
-8871.77
1783.03
-8416.02
1542.92
-7985.17
1316.02
-7579.79
1101.98
-7197.84
900.556
-6844.95
711.47
-6513.42
536.149
-6225.2
370.843
-5952.51
229.471
-5761.86
85.4764
-5598.01
-5630.17
279819
-467307
265693
-443919
252270
-421700
239510
-400568
227399
-380499
215892
-361397
204960
-343278
194589
-326041
184719
-309658
175351
-294114
166469
-279337
158000
-265284
149973
-251954
142359
-239290
135112
-227246
128220
-215808
121695
-204962
115479
-194635
109587
-184854
103989
-175532
98655.1
-166699
93600.7
-158295
88795.9
-150336
84226
-142746
79905.6
-135571
75775.8
-128722
71865.9
-122243
68132
-116075
64617.6
-110233
61249.6
-104672
58057.2
-99392.4
55025.7
-94379.2
52155
-89617.6
49401.2
-85092.9
46793.3
-80804.7
44331.4
-76735.4
41979
-72857.2
39744.7
-69182.8
37618.2
-65690.3
35598.1
-62375.1
33677.1
-59228.2
31850.8
-56237.9
30114.8
-53399.5
28464.6
-50704.2
26894.6
-48143.1
25403.2
-45713.1
23983.2
-43403.8
22633.1
-41210.8
21348.7
-39129.6
20128.4
-37152.7
18966.5
-35274.2
17861.6
-33489.7
16812.2
-31797.5
15812.6
-30188.9
14861.4
-28659.4
13958.5
-27208.9
13099.8
-25831.6
12280.9
-24520.1
11504.6
-23278.6
10763.9
-22095.6
10060.2
-20973.9
9393.45
-19908.9
8758.01
-18895.1
8152.48
-17932.3
7578.25
-17020.4
7032.49
-16150.8
6513.78
-15326.3
6020.7
-14542.6
5551.85
-13798.2
5105.83
-13090.4
4682.59
-12419
4280.74
-11781.2
3900.23
-11175.6
3538.31
-10599.9
3194.8
-10053.9
2869.14
-9535.79
2560.1
-9044.41
2267.37
-8579.04
1989.99
-8138.64
1727.4
-7722.57
1478.82
-7331.21
1244.28
-6963.3
1022.98
-6623.64
814.741
-6305.18
620.413
-6030.87
437.555
-5769.66
278.149
-5602.46
117.106
-5436.97
-5513.07
302752
-451229
287478
-428645
272951
-407173
259160
-386776
246046
-367385
233595
-348946
221763
-331446
210521
-314799
199868
-299005
189717
-283963
180082
-269702
170948
-256150
162256
-243263
153992
-231025
146155
-219409
138715
-208369
131643
-197891
124925
-187916
118530
-178459
112474
-169476
106711
-160937
101243
-152827
96024.3
-145117
91099.3
-137821
86394.8
-130867
81939.6
-124267
77704.5
-118008
73689.3
-112060
69850.1
-106394
66216
-101038
62757.7
-95934
59474.9
-91096.4
56367.8
-86510.4
53406.9
-82132
50590.7
-77988.6
47907.6
-74052.3
45363.2
-70312.8
42944.4
-66764.1
40645.3
-63391.3
38461.5
-60191.3
36382.8
-57149.5
34409.1
-54264.2
32530.2
-51520.6
30744.7
-48918.7
29048.1
-46446.5
27434.7
-44099.6
25900
-41869.2
24441.2
-39752
23054
-37742.3
21733.9
-35832.6
20479.6
-34019.9
19286.8
-32296.8
18152.4
-30663.1
17072.3
-29108.8
16046.4
-27633.5
15070.5
-26233
14141.6
-24902.7
13261.2
-23639.7
12420.7
-22438.1
11623
-21297.9
10863.8
-20214.7
10141.7
-19186.8
9456.62
-18210
8805.71
-17281.4
8183.42
-16398.1
7595.28
-15562.7
7035.66
-14766.7
6503.16
-14010.1
5996.36
-13291.4
5516.59
-12610.6
5061.05
-11963.4
4628.32
-11348.4
4215.79
-10763.1
3825.16
-10209.3
3454.23
-9683.02
3102.4
-9183.96
2768.55
-8710.56
2451.97
-8262.45
2151.83
-7838.51
1867.44
-7438.18
1598.23
-7062
1343.44
-6708.52
1102.56
-6382.77
875.488
-6078.11
662.387
-5817.77
461.421
-5568.69
282.248
-5423.28
104.99
-5259.71
-5408.08
324900
-433958
308493
-412238
292920
-391601
278112
-371969
264041
-353313
250690
-335595
237988
-318744
225934
-302745
214470
-287541
203596
-273089
193252
-259359
183439
-246337
174112
-233936
165256
-222170
156843
-210995
148841
-200368
141238
-190287
134032
-180710
127179
-171606
120664
-162961
114473
-154746
108606
-146959
103032
-139543
97723
-132512
92678.3
-125822
87897.9
-119487
83352.3
-113463
79012.3
-107720
74921.4
-102303
71021.2
-97137.7
67311.6
-92224.3
63792.3
-87577.2
60434.3
-83152.3
57257.7
-78955.3
54234.7
-74965.6
51361
-71178.6
48632
-67583.9
46036.1
-64168.1
43568.8
-60924
41224.3
-57846.8
38995.1
-54920.4
36875.5
-52144.6
34864
-49509.1
32948.9
-47003.5
31127.2
-44624.9
29396.1
-42368.5
27751.2
-40224.2
26186.6
-38187.5
24699.5
-36255.2
23285.5
-34418.6
21938.8
-32673.2
20660.8
-31018.9
19444.5
-29446.8
18288.2
-27952.5
17189.1
-26534.5
16144.4
-25188.3
15149.7
-23908
14203.6
-22693.6
13304.6
-21539.2
12451.4
-20444.7
11639.6
-19402.8
10866.3
-18413.6
10131.7
-17475.4
9432.78
-16582.5
8770.88
-15736.2
8139.04
-14930.8
7538.65
-14166.3
6969.6
-13441.1
6429.1
-12750.9
5914.33
-12095.9
5425.26
-11474.3
4961
-10884.2
4520.95
-10323
4102.45
-9790.82
3705.32
-9285.89
3328.18
-8806.82
2970.38
-8352.76
2630.95
-7923.02
2309
-7516.56
2003.72
-7132.9
1714.38
-6772.66
1440.46
-6434.59
1181.02
-6123.33
935.733
-5832.83
704.233
-5586.27
486.022
-5350.48
286.21
-5223.47
92.8409
-5066.34
-5315.24
346202
-415585
328736
-394772
312119
-374984
296354
-356204
281369
-338328
267134
-321361
253607
-305216
240771
-289910
228555
-275325
216972
-261506
205964
-248350
195486
-235859
185554
-224003
176122
-212738
167147
-202020
158644
-191864
150552
-182196
142859
-173016
135547
-164295
128619
-156033
122029
-148156
115762
-140693
109819
-133600
104170
-126863
98799.8
-120452
93694.3
-114381
88853
-108621
84261.1
-103128
79874.9
-97916.6
75708.7
-92971.4
71777
-88292.6
68021.3
-83821.5
64450.3
-79581.3
61059.4
-75564.5
57838.5
-71744.7
54778.6
-68118.7
51869.4
-64674.7
49103.7
-61402.4
46478.3
-58298.6
43978.8
-55347.3
41606.5
-52548.1
39349.7
-49887.8
37204.1
-47363.4
35165.1
-44964.6
33228.5
-42688.2
31385.5
-40525.5
29633.1
-38471.8
27968.5
-36522.8
26384.3
-34671
24877.7
-32912
23447.3
-31242.7
22087.1
-29658.7
20793
-28152.6
19561.9
-26721.4
18392.5
-25365
17280.3
-24076.1
16222.6
-22850.3
15217.9
-21688.9
14261.9
-20583.1
13351.6
-19534.4
12487.2
-18538.4
11667.1
-17593.5
10885.6
-16693.9
10142.8
-15839.6
9437.13
-15030.5
8767.18
-14260.9
8130.08
-13529.2
7524.47
-12835.4
6948.86
-12175.3
6401.83
-11548.8
5881.94
-10954.5
5388.72
-10390.9
4920.04
-9854.33
4474.91
-9345.69
4052.29
-8863.27
3651.01
-8405.54
3270.38
-7972.13
2908.97
-7561.61
2566.13
-7173.73
2241.05
-6807.82
1932.67
-6464.27
1640.43
-6142.35
1363.43
-5846.33
1101.62
-5571.02
854.036
-5338.68
620.609
-5117.05
405.471
-5008.33
198.22
-4859.09
-5117.02
366588
-396107
348092
-376276
330519
-357410
313812
-339497
297943
-322459
282869
-306286
268560
-290907
254943
-276293
242033
-262415
229742
-249215
218085
-236693
207017
-224791
196494
-213480
186486
-202731
176995
-192528
167960
-182829
159396
-173632
151258
-164879
143534
-156570
136177
-148676
129202
-141181
122566
-134057
116268
-127302
110279
-120874
104599
-114771
99197.2
-108980
94045.7
-103470
89173.1
-98255.7
84550
-93293.6
80147.2
-88568.6
75949.8
-84095.3
71979.7
-79851.4
68207.6
-75809.2
64618.7
-71975.6
61208.6
-68334.6
57966.9
-64877.1
54886.5
-61594.2
51959.7
-58475.7
49176.5
-55515.4
46532.3
-52703.1
44018.4
-50034.1
41630.3
-47499.7
39359.3
-45092.4
37201
-42806.3
35148.1
-40635.3
33199
-38576.4
31345.1
-36617.9
29581.9
-34759.7
27905.1
-32994.3
26313.3
-31320.2
24799.1
-29728.6
23358.3
-28217.9
21989.3
-26783.6
20689.3
-25421.4
19452.4
-24128.2
18274.4
-22898.1
17156.7
-21732.6
16092
-20624.2
15081.8
-19573
14121.8
-18574.4
13207.7
-17624.3
12338
-16723.8
11512.7
-15868.6
10728.9
-15055.8
9982.36
-14284
9273.03
-13551.5
8599.5
-12855.7
7958.87
-12194.8
7351.09
-11567.6
6773.34
-10971.1
6224.72
-10405.8
5702.44
-9868.67
5206.83
-9358.72
4736.29
-8875.15
4289.41
-8416.39
3865.17
-7981.3
3462.24
-7569.2
3079.99
-7179.36
2717
-6810.74
2372.52
-6463.34
2045.71
-6137.47
1735.68
-5832.32
1441.29
-5551.94
1162.45
-5292.18
897.856
-5074.09
647.714
-4866.91
414.458
-4775.08
189.257
-4633.89
-4927.76
386028
-375630
366532
-356780
348032
-338910
330442
-321907
313734
-305751
297864
-290417
282789
-275832
268465
-261969
254847
-248797
241922
-236290
229645
-224416
217972
-213118
206888
-202397
196364
-192207
186356
-182520
176863
-173336
167826
-164595
159246
-156299
151107
-148432
143366
-140935
136008
-133823
129032
-127081
122394
-120665
116094
-114574
110103
-108781
104406
-103283
99017.9
-98081.3
93879.3
-93117
88990.4
-88404.6
84351.1
-83929.3
79953.8
-79698
75763.5
-75661.1
71786
-71831.6
68005
-68194.6
64413.1
-64742.7
61000.1
-61464.1
57755.6
-58349.8
54672.4
-55392.4
51742.9
-52586
48958.5
-49918.7
46313.3
-47388.9
43796.9
-44983.4
41406.4
-42702
39133.1
-40533
36974.1
-38476.2
34920.5
-36522.8
32967.9
-34665.4
31113.5
-32905.3
29351.4
-31232.2
27674.4
-29643.1
26080.9
-28135.1
24565.1
-26702.1
23124.3
-25342.7
21755.3
-24052.4
20452.6
-22825.4
19215.9
-21661.5
18039.6
-20556.3
16920.8
-19505.4
15858
-18510.2
14846.9
-17563.3
13886
-16663.4
12972.4
-15810.3
12104.8
-15001
11280.2
-14231.2
10495.7
-13499.5
9749.94
-12805.8
9041.42
-12147.1
8368.63
-11522
7728.86
-10927.8
7120.84
-10363.1
6543.13
-9828.14
5994.58
-9320.11
5473.7
-8837.85
4978.8
-8380.25
4508.84
-7946.43
4062.62
-7535.07
3638.97
-7145.55
3236.57
-6776.96
2854.63
-6428.8
2492.09
-6100.8
2147.7
-5793.07
1820.85
-5505.47
1510.2
-5241.28
1215.38
-4997.36
934.573
-4793.28
668.504
-4600.84
416.341
-4522.92
174.795
-4392.34
-4752.96
404434
-354137
384040
-336386
364643
-319513
346229
-303493
328726
-288248
312091
-273781
296294
-260035
281292
-246967
267026
-234532
253497
-222760
240615
-211534
228396
-200899
216781
-190782
205755
-181181
195274
-172039
185323
-163385
175859
-155131
166880
-147320
158342
-139894
150232
-132824
142533
-126124
135217
-119765
128254
-113702
121659
-107979
115387
-102509
109424
-97319.8
103755
-92412.2
98364.9
-87727.1
93254
-83293.8
88410.3
-79085.6
83788.5
-75076.2
79401.6
-71274.1
75233.3
-67663.3
71273.3
-64234.7
67510
-60979.3
63932.9
-57887
60534.7
-54951.6
57305.1
-52162.8
54235.3
-49516.2
51319.4
-47002.8
48547.2
-44616.6
45912.6
-42348.9
43407.1
-40196.5
41029
-38154.9
38766.7
-36213.9
36614.4
-34370.4
34571.9
-32622.9
32629.1
-30962.5
30781.7
-29384.7
29026.6
-27888.1
27356.7
-26465.1
25771.8
-25117.3
24263.3
-23834.3
22829.8
-22618.9
21466.8
-21462.4
20171.5
-20366.2
18939.5
-19324.3
17769.4
-18335.3
16656.8
-17397.5
15597.4
-16503.9
14592.5
-15658.6
13638
-14855.7
12728
-14091
11864
-13367.2
11044.4
-12679.9
10264.9
-12026.4
9522.85
-11405.1
8818.08
-10817.3
8149.14
-10258.8
7513.89
-9727.8
6909.85
-9224.1
6335.99
-8746.25
5790.71
-8292.57
5273.1
-7862.64
4781.29
-7454.62
4314.24
-7068.02
3870.73
-6702.05
3449.6
-6355.83
3049.74
-6028.95
2670.08
-5721.14
2309.36
-5432.36
1966.68
-5162.79
1640.99
-4915.59
1331.54
-4687.91
1036.28
-4498.03
756.265
-4320.82
488.56
-4255.21
233.411
-4137.2
-4519.56
421821
-331761
400531
-315095
380324
-299307
361101
-284270
342863
-270009
325521
-256439
309032
-243546
293382
-231316
278526
-219676
264392
-208626
250980
-198122
238230
-188150
226113
-178665
214601
-169668
203677
-161115
193298
-153006
183434
-145267
174071
-137957
165165
-130988
156714
-124374
148676
-118086
141035
-112124
133791
-106458
126900
-101088
120347
-95956.1
114148
-91119.9
108227
-86491.7
102615
-82115.2
97288.4
-77966.9
92214.3
-74011.5
87400.1
-70262.1
82823.8
-66697.9
78478.1
-63317.5
74348
-60104.6
70422
-57053.3
66692.6
-54157.6
63148.1
-51407
59781
-48795.8
56579.6
-46314.8
53538.2
-43961.3
50646.2
-41724.7
47899.5
-39602.1
45289.1
-37586
42806.2
-35672.1
40446.6
-33854.2
38205.7
-32129.5
36074.7
-30492
34048
-28935.7
32122.5
-27459.2
30292.3
-26057.9
28554.6
-24727.4
26899.2
-23461.9
25329
-22264
23833.7
-21123.7
22413.5
-20042.2
21063.8
-19016.5
19780.5
-18040.9
18560.5
-17115.3
17399.6
-16236.6
16299
-15403.4
15251.7
-14611.3
14254.8
-13858.8
13309.6
-13145.8
12409
-12466.6
11554.4
-11825.2
10741.4
-11213.4
9969.95
-10633.6
9235.87
-10083.2
8538.26
-9561.23
7875.84
-9065.38
7246.52
-8594.78
6648.53
-8148.26
6080.8
-7724.85
5541.24
-7323.07
5028.87
-6942.26
4542.25
-6581.4
4080.03
-6239.82
3641.14
-5916.93
3224.31
-5612.12
2828.1
-5324.94
2451.94
-5056.19
2094.24
-4805.1
1753.91
-4575.27
1430.35
-4364.34
1121.02
-4188.71
827.159
-4026.96
544.213
-3972.27
274.45
-3867.43
-4245.1
438073
-308488
415988
-293010
394973
-278292
375029
-264326
356069
-251050
338065
-238435
320958
-226439
304704
-215062
289259
-204231
274580
-193947
260651
-184193
247400
-174898
234826
-166091
222886
-157728
211534
-149764
200742
-142214
190509
-135034
180762
-128210
171516
-121741
162726
-115584
154392
-109752
146470
-104202
138931
-98918.4
131759
-93916.6
124970
-89166.8
118504
-84654.2
112376
-80364
106551
-76290.4
101006
-72421.4
95742.5
-68748
90740.4
-65260
85989.6
-61947.1
81473.7
-58801.7
77182.6
-55813.5
73105.7
-52976.4
69232.9
-50284.7
65550.8
-47725
62052.2
-45297.1
58728.2
-42990.8
55568.5
-40801.6
52565.8
-38722
49712.7
-36749
47000.4
-34873.8
44423.1
-33094.8
41974.9
-31406
39647
-29801.6
37433.5
-28278.6
35330.1
-26832.4
33331
-25460
31431.6
-24158.6
29624.8
-22920.6
27909.1
-21746.1
26275.7
-20630.7
24724.7
-19572.6
23251.6
-18569.1
21849.2
-17614.1
20517.5
-16709.2
19250.6
-15848.5
18048.6
-15034.6
16904.3
-14259.1
15816.2
-13523.1
14782.7
-12825.3
13799.7
-12162.7
12868.3
-11535.2
11980.2
-10937.2
11136.6
-10369.8
10336.1
-9833.13
9575.27
-9322.31
8851.89
-8837.85
8164.64
-8378.14
7511.77
-7941.9
6891.56
-7528.05
6302.38
-7135.67
5742.76
-6763.45
5211.09
-6410.59
4706.3
-6076.61
4226.88
-5760.4
3771.34
-5461.4
3338.58
-5179.36
2927.68
-4914.03
2536.81
-4665.32
2165.3
-4433.58
1811.38
-4221.35
1474.32
-4027.28
1151.53
-3865.92
843.612
-3719.05
544.166
-3672.82
258.453
-3581.72
-3986.65
453218
-284435
430339
-270131
408632
-256586
387997
-243691
368375
-231428
349753
-219813
332057
-208743
315229
-198234
299254
-188257
284088
-178781
269659
-169764
255965
-161205
242964
-153090
230596
-145359
218846
-138014
207685
-131053
197083
-124433
187026
-118153
177455
-112170
168369
-106498
159740
-101122
151522
-95984.4
143746
-91142.4
136338
-86508.4
129312
-82140.9
122625
-77966.6
116274
-74013.2
110240
-70257
104508
-66689.3
99062.8
-63302.6
93889.2
-60086.4
88972.7
-57030.6
84300
-54129
79862.2
-51375.7
75644.8
-48759
71635.9
-46275.8
67828
-43917.2
64209.6
-41678.7
60770.2
-39551.4
57501.1
-37532.5
54396.3
-35617.2
51444.2
-33796.9
48638.8
-32068.4
45972.8
-30428.8
43438.9
-28872.1
41029.9
-27392.5
38741.1
-25989.8
36566.9
-24658.1
34499.9
-23393
32534.2
-22192.9
30665.6
-21052
28890.9
-19971.5
27203.1
-18942.8
25600.5
-17970
24074.6
-17043.1
22626.6
-16166.2
21247.9
-15330.6
19940
-14540.5
18695.5
-13790.2
17511.7
-13075.2
16388.3
-12399.8
15321.2
-11758.2
14305.9
-11147.5
13339.7
-10569
12423.7
-10021.2
11552.6
-9498.78
10724.2
-9004.69
9937.39
-8535.52
9189.95
-8090.41
8479.69
-7667.88
7805.02
-7267.23
7164.14
-6887.17
6555.19
-6526.72
5976.81
-6185.07
5427.53
-5861.31
4905.71
-5554.79
4410.14
-5264.83
3939.41
-4990.68
3492.16
-4732.11
3067.1
-4488.97
2663.07
-4261.29
2278.78
-4049.29
1912.71
-3855.28
1563.77
-3678.35
1229.11
-3531.25
909.593
-3399.53
596.636
-3359.86
298.224
-3283.31
-3688.43
467154
-259647
443598
-246575
421201
-234188
399933
-222423
379738
-211232
360527
-200602
342286
-190502
324957
-180905
308496
-171796
292845
-163130
277988
-154907
263882
-147099
250453
-139661
237716
-132622
225612
-125910
214111
-119552
203200
-113521
192803
-107757
182951
-102318
173585
-97131.9
164675
-92212.5
156236
-87545.2
148194
-83100.4
140578
-78893
133313
-74875.7
126427
-71080.8
119883
-67468.4
113664
-64038.7
107758
-60782.6
102145
-57689.8
96810
-54751.5
91742.4
-51962.9
86927.6
-49314.2
82352.2
-46800.3
78005.9
-44412.7
73874
-42143.9
69947.8
-39990.9
66216.8
-37947.7
62672.3
-36006.9
59305.4
-34165.6
56103
-32414.8
53060.6
-30754.5
50169.4
-29177.2
47422
-27681.5
44809.8
-26259.9
42329.7
-24912.4
39970.1
-23630.2
37727.9
-22416
35597.4
-21262.5
33572.7
-20168.2
31647.9
-19127.2
29817.3
-18140.9
28080.8
-17206.2
26426.7
-16316
24856.5
-15472.9
23363
-14672.6
21944.5
-13912.2
20595.5
-13191.4
19312.8
-12507.5
18096.5
-11858.9
16938
-11241.3
15837.2
-10657.4
14791.2
-10101.4
13798.4
-9576.2
12852.4
-9075.2
11955.4
-8601.8
11102.6
-8151.91
10292.3
-7725.18
9522.36
-7320.45
8790.9
-6936.42
8095.9
-6572.23
7435.71
-6226.98
6808.6
-5899.62
6212.82
-5589.29
5647.11
-5295.6
5109.59
-5017.28
4599.03
-4754.26
4114.02
-4505.67
3653.28
-4271.37
3215.25
-4050.94
2798.9
-3844.95
2402.62
-3653.02
2024.91
-3477.56
1664.69
-3318.13