/*--------------------------------*- C++ -*----------------------------------*\
  =========                 |
  \\      /  F ield         | OpenFOAM: The Open Source CFD Toolbox
   \\    /   O peration     | Website:  https://openfoam.org
    \\  /    A nd           | Version:  11
     \\/     M anipulation  |
\*---------------------------------------------------------------------------*/
FoamFile
{
    format      ascii;
    class       volVectorField;
    location    "200";
    object      U;
}
// * * * * * * * * * * * * * * * * * * * * * * * * * * * * * * * * * * * * * //

dimensions      [0 1 -1 0 0 0 0];

internalField   nonuniform List<vector> 
31595
(
(7.33799 -0.0268853 -4.25997e-20)
(7.35498 -0.0181413 3.31272e-20)
(7.34581 -0.0182869 8.42497e-20)
(7.35036 -0.0187805 9.1154e-20)
(7.34649 -0.0186469 0)
(7.34735 -0.0185223 0)
(7.34462 -0.0185752 0)
(7.34399 -0.0184836 7.83199e-20)
(7.34174 -0.0184245 3.9407e-21)
(7.34035 -0.0183022 0)
(7.33824 -0.0181756 0)
(7.33646 -0.0180007 6.04347e-20)
(7.33435 -0.0178086 -6.36299e-20)
(7.33235 -0.0175791 7.41192e-20)
(7.33019 -0.0173269 -7.80377e-20)
(7.32806 -0.017044 8.78267e-20)
(7.32584 -0.0167381 0)
(7.32361 -0.0164071 -1.09327e-19)
(7.32134 -0.0160558 2.32128e-19)
(7.31906 -0.0156857 -6.58211e-20)
(7.31675 -0.0153012 6.92989e-20)
(7.31444 -0.014906 0)
(7.31211 -0.0145056 0)
(7.30979 -0.0141061 9.39176e-20)
(7.30747 -0.0137149 -4.7724e-20)
(7.30517 -0.0133406 1.79484e-21)
(7.30289 -0.0129932 -1.17611e-19)
(7.30063 -0.0126843 -6.56031e-20)
(7.29841 -0.0124274 1.4014e-19)
(7.29624 -0.0122376 -1.50617e-19)
(7.29411 -0.012132 0)
(7.29203 -0.0121299 -4.43154e-20)
(7.29002 -0.0122529 4.83413e-20)
(7.28807 -0.0125247 -5.08974e-20)
(7.28619 -0.0129713 5.52143e-20)
(7.28438 -0.0136213 -6.00652e-20)
(7.28265 -0.0145055 3.07967e-20)
(7.28099 -0.0156571 1.02884e-19)
(7.27941 -0.0171114 0)
(7.27789 -0.0189063 -3.94823e-20)
(7.27643 -0.0210814 8.29481e-20)
(7.27502 -0.0236788 0)
(7.27366 -0.0267425 0)
(7.27233 -0.0303179 -2.62795e-20)
(7.27101 -0.0344526 1.0948e-19)
(7.26969 -0.0391958 0)
(7.26834 -0.0445987 -3.11229e-20)
(7.26694 -0.0507141 6.47871e-20)
(7.26546 -0.0575966 -3.54912e-20)
(7.26389 -0.0653028 3.63453e-20)
(7.26218 -0.0738916 -1.03088e-19)
(7.26031 -0.083424 1.84981e-20)
(7.25823 -0.0939646 -7.17572e-20)
(7.25593 -0.10558 1.01935e-19)
(7.25334 -0.118342 -2.47677e-20)
(7.25045 -0.132325 -5.58549e-20)
(7.24719 -0.147609 -3.17024e-20)
(7.24353 -0.164282 -2.10258e-20)
(7.23943 -0.182434 -3.87947e-20)
(7.23482 -0.202166 6.24806e-20)
(7.22967 -0.223588 -1.9607e-21)
(7.22391 -0.246821 2.57743e-20)
(7.21748 -0.271993 -2.81176e-21)
(7.21034 -0.299252 -1.21241e-20)
(7.20241 -0.328759 1.94416e-20)
(7.19363 -0.360695 -7.33026e-20)
(7.18394 -0.395262 -2.30492e-20)
(7.17324 -0.43269 1.9848e-20)
(7.16148 -0.473237 7.6614e-20)
(7.14856 -0.517201 4.341e-21)
(7.13441 -0.564917 -4.26858e-20)
(7.11893 -0.616777 8.55134e-22)
(7.10205 -0.673243 3.88067e-20)
(7.08366 -0.734814 0)
(7.0637 -0.802195 4.95305e-20)
(7.04207 -0.875905 0)
(7.01875 -0.957357 2.54126e-20)
(6.99363 -1.04635 0)
(6.96679 -1.14704 0)
(6.93844 -1.25458 0)
(6.9079 -1.38484 4.37842e-20)
(6.87879 -1.51093 1.9184e-20)
(6.84216 -1.69561 -2.99806e-20)
(6.82539 -1.82608 -2.48937e-20)
(6.76564 -2.12629 1.08777e-20)
(6.81669 -2.215 3.26891e-21)
(6.65899 -2.75385 5.05673e-21)
(7.04252 -2.77342 3.36312e-21)
(6.45197 -3.80724 -3.69222e-21)
(7.3472 -0.0235129 1.72056e-19)
(7.3501 -0.0178294 8.06999e-20)
(7.34946 -0.0163262 6.45377e-20)
(7.34871 -0.0172582 -2.66338e-19)
(7.34772 -0.0170389 0)
(7.34668 -0.0169164 0)
(7.34521 -0.0168829 1.29431e-19)
(7.34374 -0.0168188 0)
(7.34206 -0.0167018 0)
(7.34034 -0.0165731 -1.81101e-19)
(7.33848 -0.0164071 -3.05707e-19)
(7.33658 -0.0162141 2.21519e-19)
(7.33459 -0.0159884 1.24177e-19)
(7.33256 -0.0157355 2.78908e-19)
(7.33046 -0.0154537 -1.48982e-19)
(7.32833 -0.0151464 -8.44249e-20)
(7.32615 -0.0148147 9.48475e-20)
(7.32393 -0.0144615 -3.0298e-19)
(7.32169 -0.0140893 2.0072e-21)
(7.31941 -0.013702 -2.43069e-19)
(7.31712 -0.0133032 0)
(7.31481 -0.012898 0)
(7.31249 -0.0124919 0)
(7.31016 -0.0120916 0)
(7.30783 -0.0117047 1.91578e-19)
(7.30551 -0.0113402 0)
(7.30319 -0.0110084 2.27827e-19)
(7.30089 -0.010721 0)
(7.29862 -0.0104914 1.34199e-19)
(7.29637 -0.0103346 7.29456e-20)
(7.29415 -0.0102675 -8.00219e-20)
(7.29196 -0.0103089 8.30729e-20)
(7.28982 -0.0104797 9.11031e-20)
(7.28772 -0.0108028 -1.00795e-19)
(7.28566 -0.0113032 1.06136e-19)
(7.28365 -0.0120083 -5.84666e-20)
(7.28169 -0.0129474 1.2341e-19)
(7.27976 -0.0141522 -6.64062e-20)
(7.27788 -0.0156563 0)
(7.27604 -0.0174956 0)
(7.27421 -0.019708 -1.67338e-19)
(7.27241 -0.0223333 -2.01226e-21)
(7.27061 -0.0254133 0)
(7.26881 -0.0289916 1.03884e-19)
(7.26697 -0.0331137 -1.09985e-19)
(7.26509 -0.0378268 -5.81542e-20)
(7.26315 -0.0431801 0)
(7.26112 -0.0492246 0)
(7.25897 -0.0560133 0)
(7.25668 -0.0636012 3.77019e-20)
(7.25421 -0.0720459 4.04714e-20)
(7.25153 -0.0814074 4.35021e-20)
(7.24861 -0.0917486 4.68323e-20)
(7.24542 -0.103136 -5.05031e-20)
(7.2419 -0.11564 3.08089e-20)
(7.23802 -0.129336 -9.39817e-22)
(7.23373 -0.144302 6.76959e-20)
(7.22899 -0.160625 -3.89539e-20)
(7.22375 -0.178398 3.50942e-20)
(7.21796 -0.19772 -4.31232e-20)
(7.21155 -0.218703 -2.27671e-20)
(7.20449 -0.241465 -8.25577e-20)
(7.19669 -0.26614 2.74518e-20)
(7.1881 -0.292875 -3.31914e-20)
(7.17865 -0.321832 1.60206e-21)
(7.16827 -0.353196 1.20183e-19)
(7.15688 -0.387171 -4.73121e-20)
(7.1444 -0.42399 9.82704e-20)
(7.13074 -0.463918 -7.59404e-20)
(7.11581 -0.507261 3.54698e-20)
(7.09952 -0.554358 -3.48998e-20)
(7.08176 -0.605615 3.69164e-20)
(7.06243 -0.661508 -6.087e-20)
(7.04143 -0.722557 4.94061e-20)
(7.01866 -0.789471 -2.29706e-20)
(6.994 -0.862855 0)
(6.96738 -0.94403 7.0127e-20)
(6.93873 -1.03313 7.78984e-20)
(6.90799 -1.1338 8.60566e-20)
(6.87545 -1.24248 2.21464e-20)
(6.84036 -1.37279 -9.08012e-20)
(6.80597 -1.50253 -3.08839e-20)
(6.76474 -1.68658 -5.8492e-20)
(6.73985 -1.82619 7.63038e-20)
(6.67822 -2.12468 2.7042e-20)
(6.71445 -2.22954 -5.04204e-20)
(6.56139 -2.77031 -4.89424e-21)
(6.89936 -2.79547 -1.73283e-20)
(6.33433 -3.85891 -2.36008e-20)
(7.34868 -0.019739 -1.33004e-19)
(7.35016 -0.0163913 -1.28421e-19)
(7.34995 -0.0146535 1.54264e-19)
(7.34891 -0.0154879 1.00245e-20)
(7.34789 -0.015457 -2.03153e-19)
(7.34677 -0.0152944 2.13886e-19)
(7.34535 -0.015245 2.52451e-19)
(7.34385 -0.0151662 -1.35578e-19)
(7.34221 -0.0150323 0)
(7.34048 -0.0148752 1.74739e-19)
(7.33866 -0.0146847 1.94599e-19)
(7.33678 -0.0144628 -1.08059e-19)
(7.33482 -0.0142089 -1.19824e-19)
(7.3328 -0.0139262 -1.36544e-19)
(7.33073 -0.0136154 1.42657e-19)
(7.32861 -0.013279 0)
(7.32645 -0.0129193 1.81554e-19)
(7.32426 -0.0125394 1.99215e-19)
(7.32202 -0.0121423 0)
(7.31976 -0.0117322 -1.16205e-19)
(7.31747 -0.0113133 0)
(7.31517 -0.010891 -1.40777e-19)
(7.31284 -0.0104711 0)
(7.3105 -0.0100606 3.40475e-19)
(7.30815 -0.00966758 -3.62278e-19)
(7.3058 -0.00930098 -3.98169e-19)
(7.30344 -0.00897129 -2.21112e-19)
(7.30109 -0.0086903 1.17263e-19)
(7.29875 -0.00847124 -1.29639e-19)
(7.29642 -0.00832897 0)
(7.29411 -0.00828014 0)
(7.29181 -0.00834303 -8.37827e-20)
(7.28953 -0.00853777 1.76643e-19)
(7.28727 -0.00888669 9.54634e-20)
(7.28504 -0.00941367 0)
(7.28282 -0.0101451 0)
(7.28063 -0.0111091 -1.23233e-19)
(7.27844 -0.0123358 1.29803e-19)
(7.27627 -0.0138574 -7.15713e-20)
(7.2741 -0.0157082 3.06398e-19)
(7.27193 -0.0179243 1.65912e-19)
(7.26974 -0.0205437 -2.78074e-22)
(7.26752 -0.0236066 -9.65662e-20)
(7.26525 -0.0271546 3.54388e-21)
(7.26292 -0.0312314 1.08133e-19)
(7.26051 -0.0358827 -1.21331e-19)
(7.25799 -0.0411558 6.4819e-20)
(7.25534 -0.0471002 2.53402e-21)
(7.25254 -0.0537675 0)
(7.24955 -0.0612113 -8.30296e-20)
(7.24635 -0.0694879 -9.00493e-20)
(7.2429 -0.0786565 9.77957e-20)
(7.23915 -0.0887792 -5.42435e-20)
(7.23509 -0.0999213 -1.11674e-19)
(7.23066 -0.112153 1.62595e-21)
(7.22581 -0.125548 6.75033e-20)
(7.22051 -0.140186 -7.12093e-20)
(7.21471 -0.156153 -4.04838e-20)
(7.20835 -0.173542 1.30899e-19)
(7.20138 -0.192452 4.33893e-20)
(7.19374 -0.212995 5.16683e-20)
(7.18537 -0.235291 5.50404e-20)
(7.1762 -0.259475 -6.78803e-20)
(7.16616 -0.285694 0)
(7.15519 -0.314113 0)
(7.14319 -0.344919 -1.79641e-19)
(7.13009 -0.37832 -5.58896e-20)
(7.11579 -0.414552 0)
(7.10021 -0.453884 0)
(7.08322 -0.496626 -6.38195e-20)
(7.06474 -0.543131 0)
(7.04463 -0.593815 -1.34096e-19)
(7.02278 -0.649158 4.63485e-20)
(6.99907 -0.709707 4.95015e-21)
(6.97336 -0.77618 -1.51927e-19)
(6.94553 -0.849247 3.24206e-20)
(6.91544 -0.930176 -1.10239e-19)
(6.88303 -1.01936 -1.17271e-19)
(6.84815 -1.12004 -8.50976e-20)
(6.81107 -1.22971 1.0858e-19)
(6.77102 -1.36024 -1.18864e-19)
(6.73097 -1.49316 5.59903e-20)
(6.68415 -1.67712 5.81849e-20)
(6.65128 -1.82466 -1.55073e-19)
(6.58538 -2.12229 1.7169e-20)
(6.60783 -2.24246 2.48742e-20)
(6.45724 -2.78553 7.2944e-21)
(6.76028 -2.81721 7.25433e-20)
(6.25758 -3.91961 3.89218e-20)
(7.34973 -0.0165244 -1.23897e-19)
(7.35018 -0.0146639 -1.32987e-19)
(7.35026 -0.0130064 -1.39858e-19)
(7.3491 -0.0137393 1.73566e-19)
(7.34805 -0.0138561 7.08834e-21)
(7.34688 -0.0136967 0)
(7.34549 -0.0136311 7.62786e-21)
(7.34398 -0.0135397 -1.31712e-19)
(7.34236 -0.0133907 1.46329e-19)
(7.34065 -0.0132068 0)
(7.33886 -0.0129906 1.91764e-19)
(7.33699 -0.0127395 -2.01914e-19)
(7.33506 -0.0124559 -2.35404e-19)
(7.33306 -0.0121421 1.20448e-19)
(7.33102 -0.0118003 0)
(7.32892 -0.0114328 0)
(7.32678 -0.0110426 -1.6949e-19)
(7.3246 -0.010633 -1.88279e-19)
(7.32238 -0.0102076 2.04997e-19)
(7.32013 -0.00977076 4.58144e-19)
(7.31784 -0.00932722 3.624e-21)
(7.31553 -0.00888244 -2.72695e-19)
(7.3132 -0.00844269 -5.64709e-21)
(7.31085 -0.00801515 -3.48393e-21)
(7.30847 -0.00760795 1.21792e-21)
(7.30609 -0.00723032 1.94301e-19)
(7.3037 -0.00689263 0)
(7.30129 -0.00660665 1.16978e-19)
(7.29888 -0.00638548 -2.50425e-19)
(7.29647 -0.00624386 -1.40197e-19)
(7.29406 -0.00619784 -4.50565e-21)
(7.29165 -0.00626518 -2.387e-21)
(7.28923 -0.00646557 -1.73703e-19)
(7.28682 -0.00682038 0)
(7.28441 -0.00735267 0)
(7.28199 -0.00808763 -1.12046e-19)
(7.27957 -0.00905219 -2.19504e-21)
(7.27713 -0.0102752 0)
(7.27467 -0.0117873 0)
(7.27219 -0.0136214 -1.495e-19)
(7.26967 -0.0158118 -8.0641e-20)
(7.2671 -0.0183951 1.7855e-19)
(7.26447 -0.0214093 1.90358e-19)
(7.26175 -0.0248948 -9.83252e-20)
(7.25894 -0.0288931 2.26187e-19)
(7.25601 -0.0334485 -9.49197e-22)
(7.25294 -0.0386064 0)
(7.24969 -0.044415 -6.89219e-20)
(7.24626 -0.0509242 1.57139e-19)
(7.24259 -0.0581862 1.65343e-19)
(7.23867 -0.066256 -9.45097e-20)
(7.23446 -0.0751918 -9.52554e-20)
(7.22992 -0.0850543 1.03637e-19)
(7.22501 -0.0959083 0)
(7.21968 -0.107823 -1.32856e-19)
(7.2139 -0.120871 0)
(7.20761 -0.135132 0)
(7.20077 -0.150692 0)
(7.19331 -0.167641 -8.91414e-20)
(7.18518 -0.186083 5.26972e-20)
(7.17632 -0.206125 6.32998e-20)
(7.16667 -0.22789 0)
(7.15615 -0.251511 -8.28812e-21)
(7.14468 -0.277139 5.61248e-21)
(7.13219 -0.30494 0)
(7.11859 -0.3351 4.1745e-20)
(7.10379 -0.367829 4.11585e-20)
(7.08769 -0.403369 -1.2608e-19)
(7.07018 -0.441991 0)
(7.05114 -0.484011 0)
(7.03045 -0.52979 0)
(7.00798 -0.579749 4.04364e-20)
(6.98358 -0.634381 5.13787e-20)
(6.95711 -0.694256 0)
(6.92841 -0.760095 -5.72508e-21)
(6.89733 -0.832623 2.29626e-19)
(6.86368 -0.913077 3.55333e-20)
(6.82737 -1.00206 9.29932e-20)
(6.78816 -1.10252 -1.86972e-19)
(6.74635 -1.21283 1.34192e-20)
(6.70099 -1.34331 1.44076e-20)
(6.65499 -1.47898 -3.49289e-20)
(6.60186 -1.66253 3.70921e-20)
(6.56081 -1.81775 1.63168e-19)
(6.489 -2.11401 0)
(6.49773 -2.24968 1.03816e-19)
(6.34809 -2.79602 5.82317e-20)
(6.61296 -2.8348 -5.45327e-20)
(6.18425 -3.98066 -1.4695e-20)
(7.35005 -0.0138175 2.32856e-19)
(7.35026 -0.0129624 0)
(7.3504 -0.0114195 1.35909e-19)
(7.34929 -0.0120612 3.30216e-19)
(7.34817 -0.0122719 -1.71237e-19)
(7.34701 -0.0121382 -2.00848e-19)
(7.34563 -0.0120533 4.72211e-19)
(7.34413 -0.0119501 -5.14115e-19)
(7.34253 -0.0117835 0)
(7.34084 -0.0115743 1.66493e-19)
(7.33907 -0.0113297 -1.75306e-19)
(7.33723 -0.0110485 0)
(7.33532 -0.010733 0)
(7.33335 -0.0103861 0)
(7.33132 -0.0100106 2.68417e-19)
(7.32924 -0.00960929 0)
(7.32712 -0.00918539 1.64764e-19)
(7.32495 -0.00874256 -1.84501e-19)
(7.32275 -0.00828476 -4.99456e-21)
(7.3205 -0.0078165 -2.16665e-19)
(7.31822 -0.0073429 -2.46251e-19)
(7.31591 -0.00686968 5.19924e-19)
(7.31357 -0.00640323 0)
(7.3112 -0.00595083 3.12397e-19)
(7.3088 -0.0055208 3.42837e-19)
(7.30638 -0.00512233 -4.1182e-21)
(7.30394 -0.00476579 2.00863e-19)
(7.30149 -0.00446279 0)
(7.29901 -0.00422628 0)
(7.29651 -0.00407055 2.66603e-19)
(7.294 -0.00401128 -1.39068e-19)
(7.29147 -0.00406588 -1.54061e-19)
(7.28893 -0.00425305 1.69984e-19)
(7.28636 -0.00459354 1.84752e-19)
(7.28377 -0.00510958 -2.03157e-19)
(7.28116 -0.00582523 3.24209e-19)
(7.27851 -0.00676621 9.62832e-22)
(7.27582 -0.00796015 0)
(7.27309 -0.00943635 -1.39401e-19)
(7.2703 -0.0112262 0)
(7.26744 -0.0133625 1.64216e-19)
(7.26451 -0.0158801 -3.52209e-19)
(7.26147 -0.0188157 -9.69366e-20)
(7.25833 -0.0222077 2.0765e-22)
(7.25505 -0.026096 -2.24624e-19)
(7.25161 -0.0305235 2.44355e-19)
(7.248 -0.035534 4.09397e-21)
(7.24418 -0.0411739 -1.42146e-19)
(7.24013 -0.0474916 8.74305e-20)
(7.23582 -0.0545381 -8.42682e-20)
(7.2312 -0.0623672 9.08321e-20)
(7.22625 -0.0710354 9.40963e-22)
(7.22093 -0.0806027 -4.17517e-21)
(7.2152 -0.0911322 1.20231e-19)
(7.209 -0.102693 1.29769e-19)
(7.20231 -0.115356 -7.55074e-20)
(7.19505 -0.129201 -3.49539e-21)
(7.18719 -0.144312 -3.98364e-21)
(7.17865 -0.160781 1.99869e-19)
(7.16939 -0.178707 -5.62011e-20)
(7.15934 -0.198203 7.08461e-21)
(7.14842 -0.219387 2.06335e-19)
(7.13656 -0.242394 1.43338e-19)
(7.12368 -0.267375 -2.53843e-19)
(7.1097 -0.294494 -9.56692e-20)
(7.09451 -0.323943 1.01218e-19)
(7.07801 -0.355933 1.10635e-19)
(7.0601 -0.390705 -1.21098e-20)
(7.04067 -0.428535 0)
(7.01956 -0.469743 -8.39973e-20)
(6.99666 -0.514694 1.36136e-19)
(6.9718 -0.56382 -4.9966e-20)
(6.94482 -0.61762 0)
(6.91555 -0.67668 -6.67392e-20)
(6.88381 -0.741734 7.08466e-20)
(6.84938 -0.813557 -1.55022e-19)
(6.81207 -0.893357 -1.93015e-19)
(6.77173 -0.981919 2.16611e-19)
(6.72804 -1.08195 2.29864e-19)
(6.68125 -1.19257 1.4427e-20)
(6.63032 -1.32282 1.33664e-19)
(6.57803 -1.46076 3.95967e-20)
(6.51803 -1.64381 -2.22512e-19)
(6.46846 -1.80608 -8.72385e-20)
(6.38948 -2.10087 0)
(6.38435 -2.25197 -9.47073e-20)
(6.23338 -2.803 -7.70907e-20)
(6.45423 -2.8501 1.05229e-19)
(6.07877 -4.03418 0)
(7.35034 -0.0115524 0)
(7.35029 -0.0113377 0)
(7.3505 -0.00993337 0)
(7.34944 -0.0104738 -1.57571e-19)
(7.34829 -0.0107383 -1.85888e-19)
(7.34713 -0.0106277 1.95726e-19)
(7.34578 -0.0105233 -1.06252e-21)
(7.3443 -0.0104024 -2.51644e-19)
(7.34272 -0.0102159 -2.80362e-19)
(7.34105 -0.00997952 0)
(7.3393 -0.00970427 -3.4593e-19)
(7.33748 -0.00939052 0)
(7.33559 -0.00904067 2.12137e-19)
(7.33365 -0.00865813 0)
(7.33164 -0.00824615 -2.61784e-19)
(7.32959 -0.00780787 2.94018e-19)
(7.32748 -0.00734691 4.87063e-21)
(7.32533 -0.00686705 0)
(7.32313 -0.00637255 1.90317e-19)
(7.32089 -0.00586819 -2.1258e-19)
(7.31862 -0.00535917 -5.65618e-21)
(7.3163 -0.0048514 -2.51753e-19)
(7.31395 -0.00435142 2.75914e-19)
(7.31156 -0.00386658 -6.06965e-19)
(7.30914 -0.00340524 -1.66663e-19)
(7.30669 -0.00297644 2.87326e-21)
(7.30421 -0.00259062 -1.94832e-19)
(7.30169 -0.00225903 0)
(7.29915 -0.00199442 2.40354e-19)
(7.29657 -0.00181055 -2.48248e-19)
(7.29396 -0.00172302 -1.35664e-19)
(7.29132 -0.00174817 3.05314e-19)
(7.28864 -0.00190453 -3.3495e-19)
(7.28592 -0.00221185 -1.86215e-19)
(7.28316 -0.00269138 -6.22894e-21)
(7.28035 -0.00336617 4.25251e-19)
(7.27748 -0.00426096 0)
(7.27455 -0.00540204 0)
(7.27155 -0.00681753 -3.29555e-21)
(7.26847 -0.00853726 -3.4762e-21)
(7.26528 -0.0105927 -1.60503e-19)
(7.26199 -0.0130171 -5.00095e-21)
(7.25857 -0.0158455 -1.02815e-19)
(7.25501 -0.019115 2.08326e-19)
(7.25128 -0.0228638 1.11895e-19)
(7.24736 -0.0271332 0)
(7.24322 -0.0319652 0)
(7.23885 -0.037405 1.50109e-19)
(7.2342 -0.0434995 -3.15691e-19)
(7.22926 -0.0502982 0)
(7.22397 -0.0578536 -2.95928e-19)
(7.21831 -0.0662205 -1.06997e-19)
(7.21223 -0.0754582 1.13883e-19)
(7.2057 -0.0856285 0)
(7.19866 -0.0967994 1.44687e-19)
(7.19107 -0.109041 -7.92788e-20)
(7.18287 -0.122432 1.71315e-19)
(7.17401 -0.137055 -2.87992e-19)
(7.16443 -0.153001 7.358e-21)
(7.15406 -0.170371 0)
(7.14283 -0.189274 -1.24191e-19)
(7.13067 -0.209829 -1.38028e-19)
(7.1175 -0.232172 8.22069e-20)
(7.10322 -0.256452 -7.46603e-21)
(7.08775 -0.282836 9.70721e-20)
(7.07099 -0.311513 -2.30492e-19)
(7.05282 -0.342696 5.72074e-20)
(7.03312 -0.376631 1.28386e-19)
(7.01175 -0.413593 -7.62909e-20)
(6.98859 -0.453904 0)
(6.96346 -0.497939 2.06246e-19)
(6.9362 -0.546133 2.3207e-19)
(6.90662 -0.598994 0)
(6.87452 -0.657128 -7.26306e-20)
(6.83967 -0.721271 -6.84155e-21)
(6.80184 -0.792241 -2.73656e-19)
(6.76078 -0.871239 1.39731e-19)
(6.71627 -0.959195 1.34762e-19)
(6.66793 -1.05864 -5.13367e-19)
(6.61593 -1.16933 -6.55446e-20)
(6.55914 -1.29925 -4.04665e-20)
(6.50014 -1.43906 -1.87106e-19)
(6.43279 -1.6217 1.78744e-19)
(6.37403 -1.79042 -1.98695e-19)
(6.28678 -2.08425 2.74163e-20)
(6.26699 -2.2503 0)
(6.11216 -2.80646 0)
(6.30237 -2.87294 2.96975e-20)
(5.92262 -4.0628 -7.38578e-21)
(7.35058 -0.00963685 0)
(7.35032 -0.00983741 0)
(7.35056 -0.00856419 0)
(7.34958 -0.00899372 1.28257e-20)
(7.34842 -0.00927354 -1.68768e-19)
(7.34726 -0.00917659 3.94183e-19)
(7.34594 -0.0090488 -4.33895e-19)
(7.34447 -0.00890343 7.43181e-19)
(7.34292 -0.00869231 8.26687e-21)
(7.34128 -0.0084258 0)
(7.33955 -0.00811676 3.38427e-19)
(7.33776 -0.00776746 1.91417e-19)
(7.33589 -0.00738032 -4.09141e-19)
(7.33397 -0.00695912 0)
(7.33199 -0.00650745 2.57933e-19)
(7.32995 -0.00602889 -2.71633e-19)
(7.32786 -0.00552714 5.32313e-21)
(7.32573 -0.00500624 -3.29717e-19)
(7.32354 -0.00447059 3.08137e-21)
(7.32131 -0.0039251 5.23366e-21)
(7.31903 -0.00337511 -6.13452e-21)
(7.31672 -0.00282664 4.86792e-19)
(7.31435 -0.00228626 -2.72957e-21)
(7.31195 -0.00176138 5.88816e-19)
(7.3095 -0.00126019 0)
(7.30702 -0.000791708 0)
(7.30449 -0.000366162 0)
(7.30192 5.41696e-06 0)
(7.29931 0.000310687 -4.64292e-19)
(7.29665 0.000536175 4.98804e-19)
(7.29394 0.000666916 5.53389e-19)
(7.29119 0.000686938 -1.44693e-19)
(7.28838 0.000578503 -3.29305e-19)
(7.28551 0.000322797 1.74956e-19)
(7.28258 -0.00010072 0)
(7.27958 -0.000714064 -6.37123e-19)
(7.27651 -0.00154087 -2.38779e-19)
(7.27334 -0.00260625 -5.3596e-21)
(7.27008 -0.00393707 0)
(7.26671 -0.00556171 -2.43232e-21)
(7.26321 -0.00751034 0)
(7.25958 -0.00981484 -1.80066e-19)
(7.25579 -0.0125086 3.8039e-19)
(7.25182 -0.0156272 -2.0771e-19)
(7.24766 -0.0192075 -1.17177e-19)
(7.24327 -0.0232888 -4.55578e-21)
(7.23863 -0.027912 1.3511e-19)
(7.23372 -0.0331207 0)
(7.2285 -0.0389601 -1.68226e-19)
(7.22295 -0.0454783 0)
(7.21701 -0.0527267 3.97399e-19)
(7.21066 -0.0607585 -1.11759e-19)
(7.20386 -0.0696314 1.17963e-19)
(7.19655 -0.079406 1.35835e-19)
(7.18869 -0.0901496 -2.86202e-19)
(7.18023 -0.101931 -1.58477e-19)
(7.17112 -0.114826 0)
(7.16129 -0.128919 1.92535e-19)
(7.15069 -0.144299 -1.06767e-19)
(7.13923 -0.161065 0)
(7.12686 -0.179325 -1.40962e-19)
(7.11348 -0.199199 0)
(7.09902 -0.220822 0)
(7.08337 -0.24434 -9.76653e-20)
(7.06645 -0.269923 2.12714e-19)
(7.04813 -0.297758 1.21221e-19)
(7.0283 -0.328058 7.63334e-21)
(7.00682 -0.36107 -1.65384e-21)
(6.98356 -0.397071 0)
(6.95834 -0.436389 0)
(6.931 -0.479394 -3.15774e-19)
(6.90134 -0.526531 -2.23229e-19)
(6.86915 -0.578318 -4.12468e-19)
(6.83419 -0.635367 -7.86796e-20)
(6.79621 -0.698426 2.48676e-19)
(6.75493 -0.768346 1.86086e-19)
(6.71004 -0.846324 5.64643e-20)
(6.66126 -0.933413 -2.96574e-19)
(6.60814 -1.03201 2.65941e-19)
(6.55072 -1.14239 0)
(6.48781 -1.27169 -1.83511e-19)
(6.42172 -1.41283 2.86097e-19)
(6.34649 -1.5948 -1.06149e-19)
(6.27785 -1.76923 2.26707e-19)
(6.18119 -2.06173 0)
(6.14575 -2.24262 0)
(5.98453 -2.80117 1.5102e-20)
(6.14154 -2.8845 7.28364e-21)
(5.78958 -4.10215 -1.73281e-21)
(7.35084 -0.00801107 0)
(7.35036 -0.00846253 0)
(7.35062 -0.00731018 -2.67349e-19)
(7.3497 -0.0076249 6.20234e-19)
(7.34854 -0.0078883 -6.78991e-19)
(7.3474 -0.00779174 -3.8411e-19)
(7.3461 -0.00763525 -2.20793e-19)
(7.34467 -0.00745808 2.3845e-19)
(7.34313 -0.0072166 1.41944e-20)
(7.34152 -0.00691585 -5.90225e-19)
(7.33982 -0.00656939 -5.8145e-21)
(7.33805 -0.00618099 -3.59308e-19)
(7.33622 -0.00575323 -1.92177e-19)
(7.33432 -0.00529002 3.43048e-21)
(7.33236 -0.00479531 7.68838e-21)
(7.33034 -0.0042728 -5.38549e-19)
(7.32827 -0.00372637 5.84323e-19)
(7.32615 -0.00316024 9.80926e-21)
(7.32398 -0.00257886 -1.6803e-19)
(7.32175 -0.00198719 -5.85297e-19)
(7.31948 -0.00139065 -2.18044e-19)
(7.31716 -0.000795308 -2.36511e-19)
(7.31479 -0.000207673 -2.62483e-19)
(7.31237 0.000364856 4.553e-21)
(7.3099 0.00091428 -9.4021e-19)
(7.30738 0.00143165 5.12587e-19)
(7.30481 0.00190708 -3.72009e-19)
(7.30218 0.0023298 -4.76741e-21)
(7.2995 0.00268778 -7.22742e-21)
(7.29676 0.00296805 4.92568e-19)
(7.29397 0.00315616 -5.33496e-19)
(7.2911 0.0032367 -2.93898e-19)
(7.28817 0.00319271 6.44945e-19)
(7.28516 0.00300614 -1.72287e-19)
(7.28207 0.00265723 -3.86742e-19)
(7.27889 0.00212509 4.13742e-19)
(7.2756 0.00138711 2.27184e-19)
(7.27221 0.000419337 2.4782e-19)
(7.2687 -0.000803854 -2.73798e-19)
(7.26506 -0.00230955 1.4751e-19)
(7.26126 -0.00412662 0)
(7.2573 -0.00628544 1.76233e-21)
(7.25315 -0.00881792 -1.90899e-19)
(7.24879 -0.0117582 2.15156e-19)
(7.24421 -0.0151416 1.18802e-19)
(7.23937 -0.0190059 -2.55554e-19)
(7.23426 -0.0233906 1.37401e-19)
(7.22883 -0.0283374 1.57015e-19)
(7.22306 -0.0338902 -1.72586e-19)
(7.21692 -0.0400958 1.82182e-19)
(7.21036 -0.0470035 -4.09137e-19)
(7.20334 -0.0546657 1.15512e-19)
(7.19583 -0.0631385 -1.21958e-19)
(7.18778 -0.072481 -1.41106e-19)
(7.17913 -0.0827588 4.53769e-19)
(7.16984 -0.094039 -3.38226e-19)
(7.15984 -0.106398 -9.61608e-20)
(7.14907 -0.119917 -1.12169e-19)
(7.13747 -0.134683 1.18965e-19)
(7.12496 -0.150795 -5.23645e-19)
(7.11147 -0.168361 2.79625e-19)
(7.09691 -0.187498 -1.65243e-19)
(7.08118 -0.208339 2.67491e-19)
(7.0642 -0.231031 3.05002e-19)
(7.04585 -0.255741 0)
(7.02601 -0.282656 0)
(7.00454 -0.311989 1.4624e-19)
(6.98132 -0.343987 -1.55095e-19)
(6.95617 -0.378926 1.85471e-19)
(6.92892 -0.417132 0)
(6.89938 -0.458983 -1.59351e-20)
(6.86733 -0.504923 -2.66219e-19)
(6.83254 -0.555472 -9.58197e-20)
(6.79473 -0.611254 7.97676e-20)
(6.7536 -0.673025 0)
(6.70885 -0.741662 3.26176e-19)
(6.66008 -0.818356 -1.1549e-19)
(6.60696 -0.904263 6.9257e-20)
(6.54894 -1.00167 -1.52133e-19)
(6.48595 -1.1113 8.35267e-20)
(6.41671 -1.23956 1.84549e-19)
(6.3432 -1.38136 0)
(6.25965 -1.56216 0)
(6.18052 -1.74141 2.82069e-19)
(6.07342 -2.03175 -2.97695e-19)
(6.02132 -2.22722 0)
(5.85076 -2.78509 0)
(5.97643 -2.8954 -1.46431e-19)
(5.66273 -4.14542 -5.64627e-20)
(7.35111 -0.00662519 2.24861e-19)
(7.35045 -0.00721033 -2.68083e-21)
(7.35069 -0.00616623 -2.72782e-19)
(7.34983 -0.00636649 0)
(7.34868 -0.0065876 -3.49197e-19)
(7.34755 -0.00647734 7.45685e-19)
(7.34628 -0.00628595 -4.17062e-19)
(7.34487 -0.00606976 7.7979e-21)
(7.34337 -0.00579161 -2.52139e-19)
(7.34178 -0.00545198 0)
(7.34011 -0.005064 3.19476e-19)
(7.33837 -0.00463262 3.53602e-19)
(7.33656 -0.00416062 -1.93315e-19)
(7.33469 -0.00365185 1.99392e-19)
(7.33276 -0.00311045 4.69744e-19)
(7.33076 -0.00254019 -5.26058e-19)
(7.32871 -0.00194508 2.77076e-19)
(7.32661 -0.00132939 3.18907e-19)
(7.32445 -0.00069759 0)
(7.32223 -5.46905e-05 7.66288e-19)
(7.31996 0.000593977 -4.24425e-19)
(7.31764 0.00124233 6.89423e-19)
(7.31526 0.00188407 0)
(7.31282 0.00251178 -2.84738e-19)
(7.31033 0.00311764 2.95038e-19)
(7.30778 0.00369302 3.28932e-19)
(7.30517 0.00422819 1.84451e-19)
(7.30249 0.00471287 -2.01941e-19)
(7.29975 0.00513519 2.21035e-19)
(7.29693 0.00548289 0)
(7.29404 0.00574209 2.63613e-19)
(7.29108 0.00589785 -6.08415e-21)
(7.28802 0.00593389 1.49302e-19)
(7.28487 0.00583318 -6.48831e-21)
(7.28163 0.00557685 5.67866e-19)
(7.27827 0.00514471 7.75616e-21)
(7.27479 0.00451542 8.50316e-21)
(7.27119 0.0036661 -4.92605e-19)
(7.26744 0.00257232 2.69844e-19)
(7.26353 0.00120827 -1.5162e-19)
(7.25944 -0.000453598 -6.26661e-21)
(7.25516 -0.00244211 3.51922e-19)
(7.25067 -0.00478811 -1.99728e-19)
(7.24595 -0.00752381 -2.18489e-19)
(7.24097 -0.0106835 -2.30104e-21)
(7.2357 -0.0143031 6.48634e-19)
(7.23012 -0.0184206 -2.85191e-19)
(7.2242 -0.0230762 1.53608e-19)
(7.2179 -0.0283124 0)
(7.21119 -0.0341743 -1.93746e-19)
(7.20403 -0.0407094 4.20276e-19)
(7.19638 -0.0479689 1.19069e-19)
(7.18819 -0.056007 -2.56267e-19)
(7.17942 -0.0648817 -1.39214e-19)
(7.17001 -0.0746565 0)
(7.1599 -0.0853977 1.71133e-19)
(7.14904 -0.0971796 7.02109e-22)
(7.13737 -0.110081 -3.39821e-22)
(7.1248 -0.12419 0)
(7.11127 -0.139601 5.39183e-19)
(7.09669 -0.156421 0)
(7.08097 -0.174766 1.73047e-19)
(7.06402 -0.194766 -1.83188e-19)
(7.04573 -0.216569 -2.05216e-19)
(7.02598 -0.240338 -1.21728e-19)
(7.00464 -0.266258 -1.29624e-19)
(6.98158 -0.294544 0)
(6.95663 -0.325436 0)
(6.92963 -0.359213 -1.8409e-19)
(6.90037 -0.396199 -1.10668e-19)
(6.86866 -0.436773 1.02259e-19)
(6.83424 -0.481376 2.64625e-19)
(6.79685 -0.530537 4.58992e-19)
(6.75619 -0.584879 -1.70121e-19)
(6.71192 -0.645165 2.04991e-19)
(6.66366 -0.712291 1.53973e-20)
(6.61099 -0.787446 2.63837e-19)
(6.55347 -0.871864 0)
(6.49048 -0.967748 0)
(6.42178 -1.0762 -3.85491e-19)
(6.34603 -1.20301 1.07948e-19)
(6.26482 -1.34483 7.06149e-20)
(6.17258 -1.524 6.47439e-20)
(6.08245 -1.70715 -2.09352e-19)
(5.96407 -1.99471 -1.11631e-19)
(5.89451 -2.20403 3.33205e-19)
(5.71214 -2.7597 -2.77723e-19)
(5.80354 -2.90271 -2.20532e-20)
(5.49406 -4.17226 -2.8424e-20)
(7.3514 -0.0054418 1.68246e-19)
(7.35057 -0.00607387 0)
(7.35078 -0.00512374 2.62645e-19)
(7.34997 -0.00521296 0)
(7.34884 -0.00537237 3.42964e-19)
(7.34771 -0.00523492 -3.61142e-19)
(7.34648 -0.00500237 2.00981e-19)
(7.3451 -0.00474044 4.58015e-19)
(7.34362 -0.00441929 -5.04752e-19)
(7.34206 -0.00403588 -1.39087e-20)
(7.34043 -0.00360213 3.01628e-19)
(7.33872 -0.0031238 0)
(7.33694 -0.00260375 3.8026e-19)
(7.33509 -0.0020457 -4.19933e-19)
(7.33318 -0.00145383 -4.63308e-19)
(7.33121 -0.000832022 2.43939e-19)
(7.32918 -0.000184157 -8.21322e-21)
(7.3271 0.000485423 0)
(7.32495 0.00117233 -3.35962e-19)
(7.32274 0.0018716 -7.45335e-19)
(7.32048 0.00257789 2.06457e-19)
(7.31816 0.00328537 -4.5056e-19)
(7.31577 0.00398778 -2.45834e-19)
(7.31332 0.00467795 0)
(7.31081 0.00534836 2.96712e-19)
(7.30823 0.00599039 3.25816e-19)
(7.30558 0.0065949 0)
(7.30285 0.00715172 0)
(7.30005 0.00764976 0)
(7.29716 0.00807696 5.72941e-21)
(7.29419 0.00842022 -2.50133e-19)
(7.29112 0.00866509 -5.64746e-19)
(7.28795 0.00879626 -3.12334e-19)
(7.28468 0.00879723 3.42083e-19)
(7.28128 0.00865009 -1.8765e-19)
(7.27776 0.00833584 -2.05881e-19)
(7.27409 0.00783391 2.3008e-19)
(7.27028 0.00712265 7.94502e-21)
(7.2663 0.00617873 -2.66038e-19)
(7.26214 0.0049776 -4.51085e-19)
(7.25778 0.0034931 1.60216e-19)
(7.2532 0.00169765 0)
(7.24838 -0.00043815 -2.01547e-19)
(7.24331 -0.00294497 2.08265e-19)
(7.23794 -0.0058558 -2.35922e-19)
(7.23227 -0.00920476 -2.59559e-19)
(7.22625 -0.0130286 -2.93395e-19)
(7.21985 -0.0173659 0)
(7.21305 -0.0222576 -1.79075e-19)
(7.2058 -0.027747 1.9184e-19)
(7.19807 -0.0338804 7.3681e-21)
(7.1898 -0.040707 0)
(7.18096 -0.0482797 1.23904e-19)
(7.1715 -0.0566544 2.9476e-19)
(7.16135 -0.0658936 -3.27563e-19)
(7.15046 -0.0760611 1.775e-19)
(7.13878 -0.0872291 4.06187e-19)
(7.12622 -0.0994769 -4.51008e-19)
(7.11272 -0.112888 0)
(7.0982 -0.127557 -2.74727e-19)
(7.08257 -0.143588 -3.22581e-19)
(7.06573 -0.161095 -1.71899e-19)
(7.04758 -0.180206 -2.03866e-19)
(7.02801 -0.201066 1.0157e-19)
(7.0069 -0.223838 3.63991e-19)
(6.9841 -0.248704 -1.44732e-19)
(6.95946 -0.275875 4.7782e-19)
(6.93282 -0.305589 -1.83787e-19)
(6.90399 -0.338126 2.98903e-19)
(6.87276 -0.373808 1.22964e-19)
(6.83889 -0.413009 2.49025e-19)
(6.80212 -0.456173 0)
(6.76215 -0.503827 1.69985e-19)
(6.71865 -0.556595 -8.46999e-20)
(6.67124 -0.615248 -4.17263e-19)
(6.61947 -0.680692 7.43333e-21)
(6.56286 -0.75412 -2.72994e-19)
(6.50089 -0.836825 7.06367e-20)
(6.43283 -0.930953 1.77017e-19)
(6.3583 -1.0379 7.05519e-19)
(6.27583 -1.163 -1.17412e-19)
(6.1866 -1.30432 -6.59028e-19)
(6.08526 -1.48167 -3.01524e-19)
(5.9834 -1.66786 3.41133e-19)
(5.85284 -1.95275 7.06235e-19)
(5.76431 -2.17466 -3.79811e-19)
(5.5683 -2.72911 3.71346e-19)
(5.6249 -2.89841 -2.56054e-20)
(5.28885 -4.18027 1.99949e-19)
(7.35169 -0.00443148 3.43168e-19)
(7.35073 -0.00504562 2.60658e-19)
(7.35088 -0.00417407 2.63659e-19)
(7.35012 -0.00415751 0)
(7.34901 -0.00424107 0)
(7.3479 -0.00406428 0)
(7.34669 -0.00378451 4.1199e-19)
(7.34534 -0.00347094 -2.10255e-19)
(7.3439 -0.00310076 2.43972e-19)
(7.34237 -0.00266873 -2.79029e-19)
(7.34077 -0.00218501 2.93852e-19)
(7.33909 -0.0016557 3.40693e-19)
(7.33734 -0.00108378 -3.58801e-19)
(7.33552 -0.000472787 0)
(7.33364 0.000173279 2.17923e-19)
(7.3317 0.00085054 -2.9781e-21)
(7.32969 0.00155519 -2.69161e-19)
(7.32762 0.00228297 -2.96629e-19)
(7.32549 0.00302955 3.32585e-19)
(7.3233 0.00379016 6.23456e-21)
(7.32104 0.00455956 2.04347e-19)
(7.31872 0.00533211 6.16935e-21)
(7.31633 0.00610161 2.43417e-19)
(7.31387 0.00686138 -2.63691e-19)
(7.31134 0.00760394 -5.92254e-19)
(7.30873 0.00832112 3.10501e-19)
(7.30605 0.00900409 3.60088e-19)
(7.30328 0.00964315 -5.66609e-19)
(7.30042 0.0102275 -2.08328e-19)
(7.29747 0.0107459 2.34063e-19)
(7.29441 0.0111855 -2.55265e-19)
(7.29125 0.0115329 6.79435e-21)
(7.28798 0.0117735 -3.02713e-19)
(7.28458 0.0118913 -6.77551e-19)
(7.28104 0.0118696 1.85952e-19)
(7.27736 0.0116901 -4.74874e-21)
(7.27352 0.0113334 -9.28056e-21)
(7.26951 0.0107788 7.35015e-19)
(7.26532 0.0100043 2.77194e-19)
(7.26092 0.00898663 1.56792e-19)
(7.2563 0.00770073 -1.60769e-19)
(7.25144 0.00612052 0)
(7.24631 0.0042179 2.0354e-19)
(7.2409 0.00196355 2.5038e-21)
(7.23517 -0.00067378 2.44064e-19)
(7.22911 -0.00372699 2.73409e-19)
(7.22267 -0.00723117 -2.9543e-19)
(7.21582 -0.0112233 0)
(7.20854 -0.0157426 -7.13091e-21)
(7.20078 -0.020831 -9.66527e-21)
(7.19249 -0.0265329 -2.28931e-19)
(7.18365 -0.0328961 4.92649e-19)
(7.17418 -0.039971 1.09064e-20)
(7.16405 -0.0478131 -3.08975e-19)