/*--------------------------------*- C++ -*----------------------------------*\
  =========                 |
  \\      /  F ield         | OpenFOAM: The Open Source CFD Toolbox
   \\    /   O peration     | Website:  https://openfoam.org
    \\  /    A nd           | Version:  11
     \\/     M anipulation  |
\*---------------------------------------------------------------------------*/
FoamFile
{
    format      ascii;
    class       volVectorField;
    location    "200";
    object      U;
}
// * * * * * * * * * * * * * * * * * * * * * * * * * * * * * * * * * * * * * //

dimensions      [0 1 -1 0 0 0 0];

internalField   nonuniform List<vector> 
31595
(
(25.5229 3.31361 -8.91329e-19)
(25.6792 3.40688 3.25541e-19)
(25.6233 3.43389 1.34774e-18)
(25.6371 3.42616 1.51288e-18)
(25.6163 3.42869 0)
(25.6088 3.4333 0)
(25.5865 3.43463 0)
(25.5683 3.43643 1.15555e-18)
(25.5447 3.4383 3.51627e-20)
(25.5211 3.44034 0)
(25.495 3.44247 0)
(25.4678 3.44488 8.5309e-19)
(25.4391 3.44756 -8.98893e-19)
(25.4091 3.45056 1.03537e-18)
(25.3777 3.45388 -1.09105e-18)
(25.3451 3.45757 1.21878e-18)
(25.3112 3.46165 0)
(25.276 3.46614 -1.522e-18)
(25.2394 3.47107 3.22995e-18)
(25.2015 3.47645 -9.21835e-19)
(25.1623 3.48231 9.71632e-19)
(25.1216 3.48868 0)
(25.0794 3.49557 0)
(25.0358 3.50301 1.35024e-18)
(24.9906 3.51102 -6.81006e-19)
(24.9438 3.51962 3.36068e-20)
(24.8954 3.52883 -1.71858e-18)
(24.8452 3.53866 -9.86446e-19)
(24.7934 3.54915 2.12409e-18)
(24.7396 3.56029 -2.2997e-18)
(24.684 3.5721 0)
(24.6265 3.5846 -6.87083e-19)
(24.5669 3.59779 7.89428e-19)
(24.5053 3.61168 -8.32732e-19)
(24.4414 3.62626 9.39075e-19)
(24.3753 3.64154 -1.045e-18)
(24.3069 3.6575 5.53885e-19)
(24.236 3.67414 1.84471e-18)
(24.1626 3.69145 0)
(24.0865 3.7094 -7.58099e-19)
(24.0077 3.72798 1.62121e-18)
(23.9259 3.74715 0)
(23.8411 3.7669 0)
(23.7531 3.78718 -5.56668e-19)
(23.6617 3.80797 2.33384e-18)
(23.5668 3.82921 0)
(23.4682 3.85087 -7.26269e-19)
(23.3656 3.8729 1.55394e-18)
(23.2588 3.89524 -8.75222e-19)
(23.1476 3.91785 9.50464e-19)
(23.0318 3.94066 -2.57891e-18)
(22.9109 3.96361 5.58662e-19)
(22.7848 3.98663 -1.87857e-18)
(22.6531 4.00964 2.73965e-18)
(22.5154 4.03257 -7.30318e-19)
(22.3713 4.05533 -1.6511e-18)
(22.2205 4.07782 -9.33244e-19)
(22.0623 4.09992 -5.34637e-19)
(21.8964 4.12153 -1.13861e-18)
(21.7222 4.14251 1.81841e-18)
(21.539 4.16271 -1.10468e-20)
(21.3463 4.18195 7.44313e-19)
(21.1432 4.20005 3.98344e-20)
(20.929 4.21678 -4.2116e-19)
(20.7027 4.23189 5.30596e-19)
(20.4634 4.24509 -2.23572e-18)
(20.21 4.25602 -6.28565e-19)
(19.9412 4.26429 6.9244e-19)
(19.6557 4.26943 2.3174e-18)
(19.3518 4.27086 5.29941e-20)
(19.0278 4.26791 -1.38658e-18)
(18.6817 4.25976 2.2895e-20)
(18.3112 4.24544 1.21152e-18)
(17.9137 4.22372 0)
(17.4861 4.19312 1.5208e-18)
(17.0249 4.15179 0)
(16.5259 4.09739 9.78715e-19)
(15.9844 4.02697 0)
(15.3947 3.93675 0)
(14.75 3.82184 0)
(14.0423 3.6758 1.71628e-18)
(13.262 3.49006 1.00328e-18)
(12.3973 3.25326 -1.79951e-18)
(11.4351 2.94893 -1.46921e-18)
(10.3577 2.55806 8.58915e-19)
(9.14881 2.03997 5.63873e-19)
(7.78366 1.38665 7.5015e-19)
(6.25587 0.412128 -1.00621e-18)
(4.55992 -0.484514 1.50432e-18)
(25.6379 3.35549 2.79398e-18)
(25.6476 3.40866 1.48835e-18)
(25.6497 3.45164 1.2701e-18)
(25.6369 3.44447 -4.35628e-18)
(25.6234 3.44631 0)
(25.609 3.45169 0)
(25.5902 3.45451 1.94763e-18)
(25.5695 3.45683 0)
(25.5471 3.45961 0)
(25.5229 3.4625 -2.61198e-18)
(25.4972 3.46557 -4.36187e-18)
(25.4702 3.46893 3.14862e-18)
(25.4418 3.47261 1.7462e-18)
(25.412 3.47665 3.90537e-18)
(25.381 3.48107 -2.08922e-18)
(25.3488 3.4859 -1.18272e-18)
(25.3153 3.49117 1.32271e-18)
(25.2805 3.49689 -4.21752e-18)
(25.2444 3.5031 2.4099e-20)
(25.207 3.50981 -3.39797e-18)
(25.1682 3.51706 0)
(25.128 3.52485 0)
(25.0864 3.53321 0)
(25.0433 3.54217 0)
(24.9987 3.55174 2.75164e-18)
(24.9526 3.56195 0)
(24.9047 3.57282 3.35411e-18)
(24.8552 3.58437 0)
(24.804 3.5966 2.00897e-18)
(24.7509 3.60955 1.1231e-18)
(24.696 3.62322 -1.25014e-18)
(24.6391 3.63763 1.30093e-18)
(24.5802 3.65278 1.4487e-18)
(24.5192 3.66869 -1.65683e-18)
(24.4561 3.68534 1.74791e-18)
(24.3906 3.70276 -9.98825e-19)
(24.3228 3.72093 2.13675e-18)
(24.2526 3.73985 -1.18891e-18)
(24.1798 3.7595 0)
(24.1043 3.77988 0)
(24.026 3.80097 -3.13898e-18)
(23.9447 3.82276 -1.68553e-20)
(23.8604 3.84521 0)
(23.7728 3.86831 2.04656e-18)
(23.6819 3.89202 -2.23264e-18)
(23.5873 3.91631 -1.22123e-18)
(23.489 3.94115 0)
(23.3866 3.9665 0)
(23.2801 3.99231 0)
(23.169 4.01854 9.11482e-19)
(23.0532 4.04515 1.00153e-18)
(22.9323 4.07207 1.10079e-18)
(22.8061 4.09925 1.21029e-18)
(22.6742 4.12663 -1.33114e-18)
(22.5363 4.15414 7.02978e-19)
(22.3918 4.18169 -3.1152e-20)
(22.2405 4.20921 1.76768e-18)
(22.0818 4.23661 -9.69874e-19)
(21.9152 4.26377 1.06577e-18)
(21.7401 4.29059 -1.15869e-18)
(21.5559 4.31692 -6.1587e-19)
(21.3619 4.34261 -2.14722e-18)
(21.1574 4.3675 8.03456e-19)
(20.9416 4.39137 -9.04695e-19)
(20.7134 4.41401 -2.2853e-20)
(20.4719 4.43513 3.29175e-18)
(20.216 4.45441 -1.20946e-18)
(19.9443 4.47149 2.69831e-18)
(19.6554 4.48591 -2.21085e-18)
(19.3477 4.49714 8.48379e-19)
(19.0193 4.50452 -9.58951e-19)
(18.6681 4.5073 1.02956e-18)
(18.2917 4.50449 -1.78728e-18)
(17.8873 4.49492 1.29689e-18)
(17.4517 4.47713 -7.69498e-19)
(16.9812 4.44928 0)
(16.4713 4.40905 1.93592e-18)
(15.917 4.35346 2.21464e-18)
(15.3121 4.27867 2.54735e-18)
(14.6494 4.17968 7.56463e-19)
(13.9202 4.0498 -3.44342e-18)
(13.1141 3.88015 -1.03596e-18)
(12.2184 3.65862 -2.41558e-18)
(11.2187 3.36792 3.63245e-18)
(10.0956 2.98647 1.8051e-18)
(8.83237 2.47288 -3.99872e-18)
(7.3995 1.8067 -2.2761e-18)
(5.80495 0.817245 -5.34174e-18)
(3.95176 -0.167548 8.62108e-18)
(25.6619 3.40201 -2.29985e-18)
(25.656 3.42819 -2.41267e-18)
(25.6585 3.46825 2.53526e-18)
(25.6436 3.46462 1.41565e-19)
(25.6281 3.46503 -3.17645e-18)
(25.6123 3.47047 3.34561e-18)
(25.5935 3.47413 3.77066e-18)
(25.5725 3.47711 -2.03287e-18)
(25.55 3.48056 0)
(25.5259 3.48428 2.54321e-18)
(25.5004 3.48823 2.80256e-18)
(25.4736 3.4925 -1.54374e-18)
(25.4455 3.49716 -1.70029e-18)
(25.4161 3.50223 -1.93121e-18)
(25.3855 3.50772 2.00356e-18)
(25.3537 3.51367 0)
(25.3206 3.52011 2.53498e-18)
(25.2863 3.52706 2.78054e-18)
(25.2507 3.53453 0)
(25.2138 3.54256 -1.60623e-18)
(25.1756 3.55116 0)
(25.136 3.56037 -1.9787e-18)
(25.095 3.57019 0)
(25.0525 3.58065 4.86267e-18)
(25.0085 3.59178 -5.19968e-18)
(24.963 3.6036 -5.75552e-18)
(24.9158 3.61612 -3.26082e-18)
(24.867 3.62937 1.73021e-18)
(24.8164 3.64336 -1.95726e-18)
(24.7641 3.65812 0)
(24.7099 3.67365 0)
(24.6537 3.68997 -1.3144e-18)
(24.5955 3.7071 2.74185e-18)
(24.5352 3.72504 1.52313e-18)
(24.4727 3.7438 0)
(24.408 3.76338 0)
(24.3409 3.78379 -2.10023e-18)
(24.2713 3.80502 2.21675e-18)
(24.1991 3.82707 -1.26621e-18)
(24.1243 3.84993 5.42456e-18)
(24.0466 3.87359 3.04877e-18)
(23.9659 3.89805 4.48219e-20)
(23.8821 3.92327 -1.78653e-18)
(23.795 3.94925 -3.53335e-20)
(23.7045 3.97597 2.1936e-18)
(23.6104 4.00339 -2.36766e-18)
(23.5124 4.03149 1.33921e-18)
(23.4104 4.06025 1.37451e-20)
(23.304 4.08962 0)
(23.1932 4.11958 -1.72733e-18)
(23.0775 4.15008 -1.89964e-18)
(22.9567 4.18108 2.08981e-18)
(22.8305 4.21254 -1.11678e-18)
(22.6985 4.2444 -2.55495e-18)
(22.5603 4.2766 -3.57592e-20)
(22.4156 4.30908 1.58045e-18)
(22.2638 4.34177 -1.6752e-18)
(22.1046 4.37459 -9.61056e-19)
(21.9373 4.40746 3.06788e-18)
(21.7614 4.44026 1.10886e-18)
(21.5763 4.47288 1.24468e-18)
(21.3812 4.5052 1.41153e-18)
(21.1754 4.53705 -1.54437e-18)
(20.958 4.56827 0)
(20.7281 4.59862 0)
(20.4846 4.62788 -4.2641e-18)
(20.2263 4.65575 -1.19168e-18)
(19.9519 4.68187 0)
(19.6599 4.70584 0)
(19.3485 4.72715 -1.64856e-18)
(19.016 4.7452 0)
(18.66 4.75923 -3.11238e-18)
(18.278 4.76831 1.1378e-18)
(17.8671 4.77132 2.75913e-20)
(17.424 4.76681 -3.69247e-18)
(16.9447 4.75298 8.2532e-19)
(16.4245 4.72753 -2.86134e-18)
(15.8581 4.68747 -3.2895e-18)
(15.2387 4.62893 -2.54798e-18)
(14.5588 4.54683 2.95024e-18)
(13.809 4.43429 -3.45579e-18)
(12.9779 4.28212 2.04605e-18)
(12.0518 4.07754 2.45044e-18)
(11.0148 3.80254 -6.73854e-18)
(9.84579 3.43304 9.0978e-19)
(8.52635 2.92691 1.77434e-18)
(7.02406 2.2516 7.8966e-19)
(5.35172 1.25104 1.27868e-17)
(3.37251 0.178523 -1.42459e-17)
(25.6788 3.44091 -1.98284e-18)
(25.6646 3.45176 -2.32343e-18)
(25.6647 3.48612 -2.32321e-18)
(25.6496 3.4845 2.75238e-18)
(25.6327 3.48417 6.41601e-20)
(25.616 3.4893 0)
(25.597 3.49354 6.21149e-20)
(25.5759 3.49714 -1.99291e-18)
(25.5534 3.50122 2.15736e-18)
(25.5295 3.50571 0)
(25.5042 3.5105 2.73705e-18)
(25.4777 3.51567 -2.88394e-18)
(25.4499 3.52129 -3.31723e-18)
(25.4209 3.52736 1.69563e-18)
(25.3907 3.53391 0)
(25.3594 3.54097 0)
(25.3268 3.54856 -2.3545e-18)
(25.293 3.55671 -2.64059e-18)
(25.258 3.56544 2.84908e-18)
(25.2216 3.57476 6.43328e-18)
(25.184 3.58471 3.38029e-20)
(25.145 3.59531 -3.81399e-18)
(25.1047 3.60657 -8.88234e-20)
(25.0629 3.61853 -6.88024e-20)
(25.0196 3.63119 5.23762e-20)
(24.9748 3.6446 2.82689e-18)
(24.9283 3.65876 0)
(24.8802 3.6737 1.72788e-18)
(24.8304 3.68944 -3.72118e-18)
(24.7788 3.70599 -2.10431e-18)
(24.7253 3.72338 -9.1768e-20)
(24.6699 3.74162 -2.07695e-20)
(24.6125 3.76072 -2.73696e-18)
(24.553 3.78069 0)
(24.4913 3.80155 0)
(24.4274 3.82331 -1.83391e-18)
(24.361 3.84596 -1.61446e-20)
(24.2922 3.86951 0)
(24.2208 3.89397 0)
(24.1466 3.91933 -2.63995e-18)
(24.0696 3.94558 -1.44974e-18)
(23.9897 3.97272 3.12154e-18)
(23.9065 4.00074 3.51732e-18)
(23.8201 4.02964 -1.90538e-18)
(23.7302 4.05938 4.20469e-18)
(23.6366 4.08997 6.36374e-20)
(23.5391 4.12137 0)
(23.4376 4.15358 -1.40077e-18)
(23.3317 4.18656 3.0241e-18)
(23.2212 4.22029 3.40728e-18)
(23.1058 4.25474 -1.78037e-18)
(22.9853 4.28988 -2.05007e-18)
(22.8592 4.32567 2.25677e-18)
(22.7273 4.36207 0)
(22.5892 4.39904 -2.69369e-18)
(22.4444 4.43653 0)
(22.2926 4.47448 0)
(22.1331 4.51283 0)
(21.9655 4.5515 -2.02929e-18)
(21.7891 4.59042 1.13738e-18)
(21.6033 4.62948 1.23702e-18)
(21.4075 4.66857 0)
(21.2007 4.70757 6.40246e-20)
(20.9822 4.74631 2.09018e-20)
(20.7509 4.78461 0)
(20.5057 4.82225 1.0253e-18)
(20.2455 4.85898 1.15873e-18)
(19.9688 4.89448 -2.55969e-18)
(19.6741 4.92838 0)
(19.3597 4.9602 0)
(19.0235 4.98939 0)
(18.6632 5.01524 1.0004e-18)
(18.2762 5.03688 1.12095e-18)
(17.8595 5.05321 0)
(17.4094 5.06288 -3.09687e-20)
(16.9219 5.06411 4.96719e-18)
(16.392 5.05465 9.37582e-19)
(15.8138 5.03157 2.20277e-18)
(15.1806 4.99099 -4.43236e-18)
(14.4839 4.92779 -4.85105e-20)
(13.7136 4.83499 8.62476e-19)
(12.8576 4.70315 -1.06334e-18)
(11.9006 4.51894 1.21938e-18)
(10.8255 4.26362 6.12851e-18)
(9.60869 3.91073 0)
(8.22962 3.4171 5.67643e-18)
(6.65318 2.73772 6.08564e-18)
(4.89153 1.73016 -1.0342e-17)
(2.77138 0.573899 8.7176e-18)
(25.6861 3.47325 3.91541e-18)
(25.6707 3.47469 0)
(25.6698 3.50401 2.27598e-18)
(25.6548 3.50375 5.19397e-18)
(25.6371 3.50316 -2.74951e-18)
(25.6199 3.50793 -3.10365e-18)
(25.6008 3.51261 7.03852e-18)
(25.5797 3.51679 -7.65515e-18)
(25.5573 3.52148 0)
(25.5336 3.52669 2.39234e-18)
(25.5086 3.5323 -2.52064e-18)
(25.4824 3.53835 0)
(25.455 3.5449 0)
(25.4265 3.55196 0)
(25.3968 3.55956 3.73476e-18)
(25.366 3.56771 0)
(25.3339 3.57644 2.30748e-18)
(25.3007 3.58578 -2.56904e-18)
(25.2663 3.59574 -8.43083e-20)
(25.2306 3.60635 -3.00478e-18)
(25.1936 3.61763 -3.49053e-18)
(25.1553 3.6296 7.31642e-18)
(25.1156 3.64229 0)
(25.0745 3.65572 4.39125e-18)
(25.032 3.66991 4.88261e-18)
(24.9879 3.68489 -9.04375e-20)
(24.9422 3.70068 2.89319e-18)
(24.8949 3.7173 0)
(24.8459 3.73477 0)
(24.7951 3.75311 3.98241e-18)
(24.7425 3.77235 -2.03919e-18)
(24.6879 3.79249 -2.2657e-18)
(24.6314 3.81356 2.5685e-18)
(24.5727 3.83558 2.82211e-18)
(24.5119 3.85854 -3.20416e-18)
(24.4487 3.88247 5.14185e-18)
(24.3832 3.90738 5.66415e-20)
(24.3153 3.93327 0)
(24.2447 3.96015 -2.25907e-18)
(24.1713 3.98802 0)
(24.0951 4.01689 2.72745e-18)
(24.0159 4.04674 -6.06063e-18)
(23.9335 4.07759 -1.70017e-18)
(23.8478 4.10943 -5.30757e-20)
(23.7586 4.14224 -4.08631e-18)
(23.6657 4.17603 4.4284e-18)
(23.5689 4.21078 9.55692e-20)
(23.4679 4.24648 -2.62512e-18)
(23.3625 4.28311 1.44245e-18)
(23.2526 4.32066 -1.58889e-18)
(23.1376 4.35912 1.7989e-18)
(23.0175 4.39846 -6.05258e-20)
(22.8918 4.43865 -8.5515e-20)
(22.7602 4.47967 2.33807e-18)
(22.6223 4.52149 2.65027e-18)
(22.4777 4.56407 -1.47988e-18)
(22.3258 4.60737 -6.4103e-20)
(22.1663 4.65134 -7.11158e-20)
(21.9985 4.69594 3.8528e-18)
(21.8219 4.74109 -1.10382e-18)
(21.6357 4.78671 -8.7309e-20)
(21.4393 4.83273 3.93031e-18)
(21.2319 4.87902 2.96291e-18)
(21.0124 4.92547 -4.88635e-18)
(20.78 4.97192 -1.85659e-18)
(20.5335 5.01818 1.98186e-18)
(20.2716 5.06403 2.26874e-18)
(19.9929 5.1092 3.29778e-20)
(19.6959 5.15334 0)
(19.3786 5.19605 -1.61524e-18)
(19.0391 5.23681 2.64331e-18)
(18.6749 5.27497 -9.77221e-19)
(18.2832 5.30972 0)
(17.8609 5.34006 -1.30765e-18)
(17.4043 5.36467 1.41905e-18)
(16.9089 5.38188 -3.32369e-18)
(16.3696 5.38948 -3.77847e-18)
(15.7801 5.38464 4.35733e-18)
(15.1331 5.36352 5.07451e-18)
(14.4197 5.32104 -1.72445e-20)
(13.6289 5.25017 3.51135e-18)
(12.7475 5.14132 1.07526e-18)
(11.759 4.98069 -6.30868e-18)
(10.6442 4.74893 -3.14443e-18)
(9.37696 4.41742 0)
(7.93374 3.9415 -5.29369e-18)
(6.27621 3.26417 -8.42726e-18)
(4.40699 2.2564 1.32322e-17)
(2.14372 1.01807 0)
(25.6919 3.49983 0)
(25.6755 3.4961 0)
(25.6739 3.52128 0)
(25.6593 3.52209 -2.49864e-18)
(25.6413 3.52157 -2.84785e-18)
(25.6238 3.52612 2.99999e-18)
(25.6047 3.53118 -6.21347e-20)
(25.5838 3.53594 -3.68015e-18)
(25.5616 3.54124 -4.05262e-18)
(25.5382 3.54716 0)
(25.5136 3.55358 -4.90537e-18)
(25.4878 3.5605 0)
(25.4608 3.56796 2.96736e-18)
(25.4328 3.576 0)
(25.4036 3.58463 -3.67108e-18)
(25.3733 3.59386 4.08343e-18)
(25.3419 3.60371 3.5166e-20)
(25.3093 3.61422 0)
(25.2755 3.6254 2.62283e-18)
(25.2405 3.63728 -2.9147e-18)
(25.2042 3.64987 -1.01501e-19)
(25.1667 3.6632 -3.48539e-18)
(25.1278 3.6773 3.83155e-18)
(25.0874 3.69219 -8.52929e-18)
(25.0457 3.70789 -2.37333e-18)
(25.0024 3.72443 2.53438e-20)
(24.9576 3.74183 -2.77813e-18)
(24.9111 3.76011 0)
(24.863 3.7793 3.4974e-18)
(24.8131 3.79943 -3.55904e-18)
(24.7613 3.8205 -1.96206e-18)
(24.7076 3.84255 4.54145e-18)
(24.652 3.86559 -5.07591e-18)
(24.5942 3.88963 -2.8875e-18)
(24.5343 3.9147 -1.21689e-19)
(24.4721 3.94082 6.51873e-18)
(24.4075 3.96798 0)
(24.3405 3.99622 0)
(24.2708 4.02553 -2.02112e-20)
(24.1983 4.05593 -1.53074e-20)
(24.123 4.08742 -2.68506e-18)
(24.0447 4.12001 -2.72785e-20)
(23.9632 4.1537 -1.65782e-18)
(23.8783 4.18851 3.41304e-18)
(23.7899 4.22442 1.9021e-18)
(23.6978 4.26143 0)
(23.6017 4.29956 0)
(23.5015 4.33879 2.63425e-18)
(23.3968 4.37911 -5.65726e-18)
(23.2875 4.42053 0)
(23.1732 4.46304 -5.16332e-18)
(23.0536 4.50662 -1.99204e-18)
(22.9285 4.55126 2.0519e-18)
(22.7973 4.59696 0)
(22.6598 4.64369 2.51782e-18)
(22.5155 4.69143 -1.43453e-18)
(22.3639 4.74016 3.10696e-18)
(22.2046 4.78984 -5.07867e-18)
(22.0369 4.84045 -3.56288e-20)
(21.8602 4.89193 0)
(21.6739 4.94424 -2.34789e-18)
(21.4772 4.9973 -2.60368e-18)
(21.2693 5.05104 1.46522e-18)
(21.0493 5.10536 2.12439e-20)
(20.816 5.16013 1.7381e-18)
(20.5684 5.21521 -3.98105e-18)
(20.3052 5.2704 1.03314e-18)
(20.025 5.32549 2.50704e-18)
(19.7259 5.38017 -1.35291e-18)
(19.4062 5.43409 0)
(19.0638 5.4868 3.46225e-18)
(18.696 5.53771 3.90562e-18)
(18.3002 5.58611 0)
(17.8728 5.63103 -1.2932e-18)
(17.41 5.67127 2.26744e-20)
(16.9072 5.70523 -4.87443e-18)
(16.3589 5.73085 2.82609e-18)
(15.7585 5.74536 2.1463e-18)
(15.0982 5.74504 -1.01577e-17)
(14.3684 5.72487 -1.53719e-18)
(13.5572 5.6778 -9.09179e-19)
(12.6505 5.5942 -4.2915e-18)
(11.6299 5.45987 5.13625e-18)
(10.4744 5.25488 -5.72275e-18)
(9.15435 4.94857 1.02042e-18)
(7.64291 4.49423 0)
(5.89527 3.8248 0)
(3.89019 2.8234 1.78546e-18)
(1.49903 1.49432 -4.96379e-18)
(25.6966 3.52195 0)
(25.6792 3.51552 0)
(25.6774 3.53737 0)
(25.6634 3.53923 1.98222e-19)
(25.6454 3.53912 -2.64991e-18)
(25.6278 3.54365 5.9385e-18)
(25.6089 3.54911 -6.4869e-18)
(25.5882 3.55448 1.0854e-17)
(25.5663 3.56041 1.23658e-19)
(25.5432 3.56705 0)
(25.519 3.57426 4.83561e-18)
(25.4937 3.58204 2.6887e-18)
(25.4673 3.59042 -5.75886e-18)
(25.4398 3.59943 0)
(25.4112 3.60907 3.57383e-18)
(25.3816 3.61937 -3.76663e-18)
(25.3508 3.63033 4.17112e-20)
(25.3189 3.642 -4.55323e-18)
(25.2858 3.65438 2.4342e-20)
(25.2515 3.6675 9.15848e-20)
(25.216 3.68139 -1.10479e-19)
(25.1792 3.69607 6.76256e-18)
(25.1411 3.71156 -1.00243e-19)
(25.1016 3.72789 8.19688e-18)
(25.0607 3.74508 0)
(25.0183 3.76316 0)
(24.9743 3.78215 0)
(24.9288 3.80209 0)
(24.8816 3.82299 -6.60356e-18)
(24.8326 3.84488 7.2079e-18)
(24.7818 3.86778 7.97648e-18)
(24.7291 3.89172 -2.18926e-18)
(24.6744 3.91672 -4.8172e-18)
(24.6176 3.94279 2.58663e-18)
(24.5587 3.96997 0)
(24.4975 3.99826 -9.62174e-18)
(24.4339 4.02768 -3.59357e-18)
(24.3679 4.05826 -2.01342e-20)
(24.2992 4.09001 0)
(24.2277 4.12294 6.15233e-20)
(24.1534 4.15707 0)
(24.0761 4.19241 -2.86958e-18)
(23.9955 4.22896 6.16162e-18)
(23.9116 4.26675 -3.44138e-18)
(23.8242 4.30577 -1.90894e-18)
(23.733 4.34604 -8.19313e-20)
(23.6378 4.38757 2.22144e-18)
(23.5384 4.43035 0)
(23.4346 4.4744 -2.71029e-18)
(23.3261 4.51972 0)
(23.2126 4.56631 6.66115e-18)
(23.0938 4.61418 -1.87555e-18)
(22.9694 4.66333 1.98736e-18)
(22.8389 4.71375 2.28303e-18)
(22.702 4.76544 -4.83433e-18)
(22.5582 4.8184 -2.67463e-18)
(22.4072 4.87262 0)
(22.2482 4.92809 3.36887e-18)
(22.0809 4.98479 -1.86455e-18)
(21.9045 5.0427 0)
(21.7183 5.10178 -2.24475e-18)
(21.5216 5.162 0)
(21.3136 5.22331 0)
(21.0933 5.28564 -1.59238e-18)
(20.8596 5.3489 3.47469e-18)
(20.6114 5.41296 2.03614e-18)
(20.3473 5.47772 9.42763e-20)
(20.0659 5.54296 6.95924e-20)
(19.7653 5.60847 0)
(19.4438 5.67391 0)
(19.099 5.73895 -5.11332e-18)
(18.7283 5.80304 -3.82332e-18)
(18.3289 5.86556 -6.51898e-18)
(17.8971 5.92566 -1.28248e-18)
(17.429 5.98221 4.26944e-18)
(16.9196 6.03378 3.29312e-18)
(16.3632 6.0784 9.67978e-19)
(15.7529 6.11347 -5.46602e-18)
(15.0803 6.13538 5.13543e-18)
(14.3352 6.13927 0)
(13.5048 6.11819 -3.56976e-18)
(12.5738 6.06251 6.58512e-18)
(11.5221 5.95782 -2.60452e-18)
(10.3264 5.78378 6.75921e-18)
(8.95331 5.50801 0)
(7.3723 5.0819 0)
(5.52641 4.43315 1.18611e-18)
(3.36411 3.44754 -2.17787e-18)
(0.878091 1.99956 -3.50593e-18)
(25.7011 3.54041 0)
(25.6828 3.53296 0)
(25.6806 3.55218 -4.20718e-18)
(25.6671 3.55511 9.5444e-18)
(25.6493 3.55568 -1.03678e-17)
(25.6318 3.56037 -5.69319e-18)
(25.6132 3.56629 -3.22866e-18)
(25.5929 3.57231 3.44176e-18)
(25.5714 3.57891 1.62934e-19)
(25.5487 3.58628 -8.40628e-18)
(25.525 3.5943 -3.14127e-20)
(25.5002 3.60294 -5.00353e-18)
(25.4744 3.61223 -2.64897e-18)
(25.4475 3.6222 1.82274e-20)
(25.4196 3.63284 1.22115e-19)
(25.3905 3.64419 -7.40964e-18)
(25.3605 3.65626 7.99546e-18)
(25.3293 3.66906 1.63981e-19)
(25.2969 3.68263 -2.30554e-18)
(25.2635 3.69698 -7.96831e-18)
(25.2287 3.71215 -3.01019e-18)
(25.1928 3.72815 -3.21395e-18)
(25.1555 3.74502 -3.63753e-18)
(25.1169 3.76277 2.98848e-20)
(25.0769 3.78143 -1.29434e-17)
(25.0355 3.80104 7.10315e-18)
(24.9925 3.82161 -5.14428e-18)
(24.9479 3.84318 -1.0636e-19)
(24.9016 3.86577 -3.59185e-20)
(24.8537 3.88942 6.95888e-18)
(24.8039 3.91413 -7.62239e-18)
(24.7523 3.93995 -4.25988e-18)
(24.6986 3.96689 9.24431e-18)
(24.6429 3.99499 -2.48789e-18)
(24.5851 4.02425 -5.5946e-18)
(24.5249 4.05472 6.116e-18)
(24.4625 4.0864 3.41794e-18)
(24.3975 4.11932 3.75744e-18)
(24.3299 4.15351 -4.01309e-18)
(24.2595 4.18898 2.27108e-18)
(24.1863 4.22575 0)
(24.1101 4.26383 9.67618e-20)
(24.0306 4.30326 -2.9239e-18)
(23.9478 4.34404 3.23237e-18)
(23.8614 4.38619 1.84268e-18)
(23.7713 4.42973 -3.97717e-18)
(23.6771 4.47467 2.1458e-18)
(23.5788 4.52103 2.46012e-18)
(23.476 4.56882 -2.62604e-18)
(23.3685 4.61807 2.8699e-18)
(23.256 4.66877 -6.44888e-18)
(23.1381 4.72096 1.81721e-18)
(23.0145 4.77464 -1.9261e-18)
(22.8849 4.82982 -2.2149e-18)
(22.7489 4.88652 7.22118e-18)
(22.6059 4.94475 -5.21288e-18)
(22.4556 5.00452 -1.49697e-18)
(22.2973 5.06583 -1.61422e-18)
(22.1306 5.12868 1.83679e-18)
(21.9547 5.19309 -7.93028e-18)
(21.769 5.25905 4.40491e-18)
(21.5727 5.32652 -2.51366e-18)
(21.3649 5.39551 3.98624e-18)
(21.1447 5.46597 4.50504e-18)
(20.911 5.53786 0)
(20.6626 5.61109 0)
(20.3981 5.68559 2.17255e-18)
(20.116 5.76122 -2.32997e-18)
(19.8145 5.83779 2.64581e-18)
(19.4916 5.91508 0)
(19.1451 5.99278 6.12301e-20)
(18.7722 6.07047 -3.80476e-18)
(18.3699 6.14761 -1.04263e-18)
(17.9346 6.22346 1.21367e-18)
(17.462 6.29705 0)
(16.947 6.36706 4.91062e-18)
(16.3836 6.43171 -1.8417e-18)
(15.7646 6.48857 1.12634e-18)
(15.0809 6.53427 -2.57603e-18)
(14.3218 6.56414 1.48492e-18)
(13.4736 6.57145 3.66611e-18)
(12.5197 6.54675 0)
(11.4383 6.47562 0)
(10.2037 6.33761 6.99515e-18)
(8.77809 6.09908 -9.31218e-18)
(7.12768 5.71093 0)
(5.1762 5.1001 0)
(2.88441 4.13256 -2.35658e-17)
(0.276417 2.57523 -4.01003e-17)
(25.7053 3.5559 3.51784e-18)
(25.6863 3.54855 -8.09965e-21)
(25.6836 3.56569 -4.19031e-18)
(25.6708 3.56969 0)
(25.6533 3.57114 -5.19621e-18)
(25.636 3.57619 1.11174e-17)
(25.6177 3.58265 -6.04305e-18)
(25.5979 3.58936 1.18156e-19)
(25.5768 3.59668 -3.61901e-18)
(25.5547 3.6048 0)
(25.5315 3.61363 4.51391e-18)
(25.5073 3.62314 4.95984e-18)
(25.4821 3.63335 -2.59026e-18)
(25.4558 3.64426 2.6975e-18)
(25.4286 3.65591 6.47015e-18)
(25.4003 3.66829 -7.14978e-18)
(25.371 3.68144 3.71881e-18)
(25.3405 3.69537 4.36735e-18)
(25.309 3.71011 0)
(25.2764 3.72568 1.03878e-17)
(25.2425 3.74211 -5.72656e-18)
(25.2075 3.75941 9.34973e-18)
(25.1711 3.77763 0)
(25.1335 3.79679 -3.87332e-18)
(25.0944 3.8169 4.05895e-18)
(25.0539 3.83802 4.48969e-18)
(25.012 3.86015 2.55606e-18)
(24.9684 3.88334 -2.80942e-18)
(24.9232 3.90761 3.08833e-18)
(24.8763 3.93298 0)
(24.8276 3.9595 3.6129e-18)
(24.7771 3.98718 -1.53673e-19)
(24.7246 4.01606 1.94363e-18)
(24.67 4.04616 -9.93938e-20)
(24.6133 4.07751 8.09638e-18)
(24.5544 4.11014 1.19745e-19)
(24.493 4.14407 1.31479e-19)
(24.4292 4.17933 -7.0078e-18)
(24.3628 4.21595 3.98291e-18)
(24.2937 4.25396 -2.20342e-18)
(24.2217 4.29337 -9.58081e-20)
(24.1466 4.33421 5.21226e-18)
(24.0683 4.37651 -2.93498e-18)
(23.9867 4.42029 -3.2211e-18)
(23.9015 4.46558 -1.27858e-19)
(23.8126 4.51239 9.49783e-18)
(23.7196 4.56076 -4.22989e-18)
(23.6225 4.61072 2.28346e-18)
(23.5208 4.66227 0)
(23.4145 4.71546 -2.78828e-18)
(23.303 4.77031 6.24128e-18)
(23.1863 4.82684 1.76007e-18)
(23.0638 4.88508 -3.67341e-18)
(22.9353 4.94507 -2.06153e-18)
(22.8002 5.00682 0)
(22.6583 5.07036 2.6042e-18)
(22.5089 5.13572 1.00934e-19)
(22.3516 5.20293 1.01135e-19)
(22.1857 5.27201 0)
(22.0106 5.343 7.7589e-18)
(21.8256 5.4159 0)
(21.63 5.49073 2.36777e-18)
(21.4227 5.56751 -2.70026e-18)
(21.203 5.64623 -3.00981e-18)
(20.9695 5.72689 -1.5834e-18)
(20.7212 5.80946 -1.81946e-18)
(20.4567 5.89389 0)
(20.1743 5.98012 0)
(19.8723 6.06804 -2.65227e-18)
(19.5485 6.15747 -1.51576e-18)
(19.2008 6.24821 1.70346e-18)
(18.8262 6.33992 3.82513e-18)
(18.4216 6.43218 6.55721e-18)
(17.9833 6.5244 -2.40366e-18)
(17.5068 6.61574 2.79123e-18)
(16.9869 6.70507 -5.72698e-20)
(16.4172 6.79082 3.72788e-18)
(15.7901 6.87079 0)
(15.0961 6.94191 0)
(14.3237 6.9998 -6.09187e-18)
(13.4584 7.03809 1.90322e-18)
(12.4821 7.04769 1.12337e-18)
(11.3711 7.01444 1.38314e-18)
(10.0971 6.91822 -5.49118e-18)
(8.61765 6.72465 -2.322e-18)
(6.89488 6.38676 1.26858e-17)
(4.8285 5.82545 -2.05976e-17)
(2.43681 4.87466 -3.06822e-18)
(-0.413833 3.26267 1.85061e-19)
(25.7095 3.56891 2.75933e-18)
(25.69 3.56245 0)
(25.6866 3.57797 4.09974e-18)
(25.6744 3.583 0)
(25.6573 3.5855 5.04923e-18)
(25.6403 3.59108 -5.31942e-18)
(25.6225 3.59815 2.97744e-18)
(25.6031 3.60559 6.60426e-18)
(25.5825 3.61367 -7.14903e-18)
(25.561 3.62257 -1.59314e-19)
(25.5384 3.63223 4.21756e-18)
(25.5149 3.64261 0)
(25.4903 3.65372 5.26256e-18)
(25.4648 3.66559 -5.77994e-18)
(25.4383 3.67822 -6.26526e-18)
(25.4108 3.69164 3.34571e-18)
(25.3822 3.70585 -1.34821e-19)
(25.3527 3.7209 0)
(25.322 3.73679 -4.47078e-18)
(25.2902 3.75355 -9.99433e-18)
(25.2573 3.77122 2.79256e-18)
(25.2232 3.78981 -6.03401e-18)
(25.1878 3.80936 -3.25774e-18)
(25.1512 3.8299 0)
(25.1131 3.85145 3.93444e-18)
(25.0737 3.87405 4.32418e-18)
(25.0328 3.89773 0)
(24.9903 3.92251 0)
(24.9463 3.94843 0)
(24.9005 3.97553 1.27216e-19)
(24.853 4.00383 -3.44887e-18)
(24.8036 4.03336 -7.7602e-18)
(24.7523 4.06415 -4.34373e-18)
(24.6989 4.09624 4.61217e-18)
(24.6435 4.12967 -2.53618e-18)
(24.5857 4.16445 -2.78926e-18)
(24.5257 4.20062 3.18992e-18)
(24.4631 4.23822 2.57385e-19)
(24.398 4.27726 -3.7065e-18)
(24.3301 4.3178 -6.20949e-18)
(24.2594 4.35985 2.24405e-18)
(24.1857 4.40344 0)
(24.1087 4.44861 -2.8318e-18)
(24.0284 4.4954 3.09499e-18)
(23.9445 4.54382 -3.4162e-18)
(23.8569 4.59392 -3.76329e-18)
(23.7652 4.64573 -4.01584e-18)
(23.6694 4.69929 0)
(23.5691 4.75462 -2.44233e-18)
(23.464 4.81177 2.78058e-18)
(23.3539 4.87078 -9.31972e-20)
(23.2384 4.93167 0)
(23.1172 4.9945 1.85863e-18)
(22.9899 5.05931 4.08449e-18)
(22.8561 5.12613 -4.51904e-18)
(22.7153 5.19502 2.44936e-18)
(22.5671 5.26602 5.63551e-18)
(22.4109 5.33917 -6.03255e-18)
(22.2461 5.41453 0)
(22.0721 5.49214 -3.8333e-18)
(21.8881 5.57206 -4.14769e-18)
(21.6934 5.65432 -2.37139e-18)
(21.487 5.73897 -2.66952e-18)
(21.268 5.82605 1.36247e-18)
(21.0352 5.9156 4.8879e-18)
(20.7874 6.00763 -1.86474e-18)
(20.5232 6.10215 6.03288e-18)
(20.2409 6.19915 -2.35047e-18)
(19.9388 6.2986 3.85257e-18)
(19.6147 6.40041 1.45447e-18)
(19.2662 6.50444 3.33713e-18)
(18.8905 6.6105 0)
(18.4842 6.71827 2.18941e-18)
(18.0436 6.8273 -1.13339e-18)
(17.564 6.93693 -5.64118e-18)
(17.0399 7.04624 -1.47221e-19)
(16.4647 7.15388 -3.89491e-18)
(15.8304 7.25795 1.01803e-18)
(15.127 7.35567 2.60858e-18)
(14.3424 7.44309 1.09158e-17)
(13.4609 7.51424 -1.94024e-18)
(12.4633 7.56054 -1.16437e-17)
(11.3235 7.56825 -5.84104e-18)
(10.0107 7.51782 7.67344e-18)
(8.47707 7.37463 2.14934e-17)
(6.6796 7.09488 -1.66161e-17)
(4.50322 6.57903 3.28939e-17)
(2.00803 5.65657 -2.21393e-18)
(-1.14807 4.04583 3.20844e-17)
(25.7135 3.57984 5.53501e-18)
(25.6938 3.5748 3.89668e-18)
(25.6898 3.58908 3.9639e-18)
(25.678 3.59512 0)
(25.6615 3.59876 0)
(25.6448 3.60501 0)
(25.6274 3.61275 5.87015e-18)
(25.6086 3.62097 -2.98878e-18)
(25.5886 3.62985 3.39781e-18)
(25.5677 3.63955 -3.86586e-18)
(25.5458 3.65005 4.07374e-18)
(25.5229 3.6613 4.65155e-18)
(25.4991 3.67332 -4.90207e-18)
(25.4743 3.68613 0)
(25.4486 3.69975 2.94298e-18)
(25.422 3.71418 -2.89233e-21)
(25.3943 3.72945 -3.5617e-18)
(25.3656 3.74559 -3.91113e-18)
(25.3359 3.76261 4.45686e-18)
(25.305 3.78056 1.7874e-19)
(25.2731 3.79944 2.69914e-18)
(25.24 3.8193 1.09764e-19)
(25.2056 3.84016 3.24822e-18)
(25.17 3.86206 -3.43715e-18)
(25.1331 3.88502 -7.85862e-18)
(25.0947 3.90908 3.99028e-18)
(25.055 3.93428 4.75406e-18)
(25.0137 3.96063 -7.41755e-18)
(24.9708 3.98819 -2.7567e-18)
(24.9262 4.01698 3.14829e-18)
(24.8799 4.04704 -3.33225e-18)
(24.8318 4.07839 1.53277e-19)
(24.7817 4.11109 -4.02916e-18)
(24.7297 4.14516 -9.03353e-18)
(24.6755 4.18063 2.53065e-18)
(24.6191 4.21755 -8.73512e-21)
(24.5604 4.25595 -1.22833e-19)
(24.4992 4.29586 9.85967e-18)
(24.4355 4.33732 3.71965e-18)
(24.369 4.38037 2.19641e-18)
(24.2997 4.42505 -2.1635e-18)
(24.2273 4.47139 0)
(24.1518 4.51943 2.73301e-18)
(24.0729 4.5692 1.08443e-19)
(23.9905 4.62076 3.18873e-18)
(23.9043 4.67414 3.65755e-18)
(23.8141 4.72939 -3.73334e-18)
(23.7197 4.78654 0)
(23.6209 4.84565 -1.20629e-20)
(23.5173 4.90676 -1.09443e-19)
(23.4086 4.96992 -3.09938e-18)
(23.2946 5.03518 6.4842e-18)
(23.1749 5.1026 9.59484e-21)
(23.0491 5.17224 -3.89523e-18)
(22.9167 5.24415 -2.07176e-18)
(22.7774 5.31839 -4.77144e-18)
(22.6306 5.39504 2.65037e-18)
(22.4759 5.47415 -2.23308e-20)
(22.3125 5.55581 6.52146e-18)
(22.1398 5.64008 -1.88788e-18)
(21.9572 5.72703 6.18059e-18)
(21.7637 5.81675 0)
(21.5586 5.90933 0)
(21.3407 6.00483 0)
(21.109 6.10332 -3.14569e-18)
(20.8622 6.20488 0)
(20.5988 6.30959 -4.0701e-18)
(20.3173 6.41748 4.45646e-18)
(20.0157 6.52859 -1.30562e-18)
(19.6919 6.64292 -1.50793e-18)
(19.3434 6.76046 -1.67415e-18)
(18.9673 6.88111 3.57605e-18)
(18.5603 7.00467 2.07178e-18)
(18.1183 7.13087 4.79687e-18)
(17.6367 7.25923 0)
(17.1096 7.38905 -3.27613e-18)
(16.5304 7.51925 -1.94118e-18)
(15.8905 7.64826 2.16568e-18)
(15.1797 7.77368 -1.35479e-18)
(14.3849 7.892 -4.84749e-18)
(13.4898 7.99782 0)
(12.4736 8.0832 1.9331e-19)
(11.3082 8.13506 4.62472e-18)
(9.96028 8.13473 -1.23174e-17)
(8.3756 8.04823 -1.6252e-17)
(6.50562 7.83116 -1.91173e-17)
(4.21636 7.36937 3.07559e-17)
(1.58963 6.51592 -2.54372e-17)
(-1.88684 4.92406 -1.167e-17)
(25.7175 3.58901 3.32431e-18)
(25.6977 3.58574 -1.1454e-17)
(25.693 3.59913 -3.9608e-18)
(25.6817 3.60613 0)
(25.6657 3.61097 0)
(25.6494 3.61798 -5.03544e-18)
(25.6326 3.62645 -1.11751e-17)
(25.6144 3.63548 5.99256e-18)
(25.5951 3.64518 -3.39537e-18)
(25.5748 3.65572 0)
(25.5536 3.66706 3.9333e-18)
(25.5315 3.67919 0)
(25.5084 3.69212 0)
(25.4845 3.70587 0)
(25.4596 3.72045 -2.95375e-18)
(25.4338 3.73588 6.36034e-18)
(25.4071 3.75219 3.55993e-18)
(25.3793 3.76941 -7.75815e-21)
(25.3506 3.78755 8.43083e-18)
(25.3207 3.80665 -4.34828e-18)
(25.2898 3.82673 2.59482e-18)
(25.2578 3.84783 -8.3188e-18)
(25.2245 3.86998 -1.25909e-19)
(25.19 3.89322 6.73903e-18)
(25.1542 3.91757 -3.78211e-18)
(25.117 3.94306 -8.3007e-18)
(25.0784 3.96975 1.33308e-17)
(25.0384 3.99766 1.95057e-19)
(24.9967 4.02682 2.76075e-18)
(24.9534 4.05728 -5.8213e-18)
(24.9084 4.08907 3.33289e-18)
(24.8616 4.12224 3.66496e-18)
(24.8129 4.15681 0)
(24.7622 4.19283 6.65389e-18)
(24.7094 4.23034 -7.02611e-18)
(24.6545 4.26937 -2.57581e-18)
(24.5972 4.30997 2.95727e-18)
(24.5375 4.35218 -3.11827e-18)
(24.4752 4.39604 -3.43927e-18)
(24.4102 4.44159 -3.78287e-18)
(24.3424 4.48888 2.17248e-18)
(24.2716 4.53794 -2.29695e-18)
(24.1976 4.58883 -1.07642e-19)
(24.1203 4.64159 2.78933e-18)
(24.0394 4.69627 -6.26988e-18)
(23.9548 4.75292 3.39116e-18)
(23.8663 4.81158 3.88706e-18)
(23.7735 4.87232 6.2829e-18)
(23.6763 4.9352 -4.5608e-18)
(23.5743 5.00026 2.62529e-18)
(23.4674 5.06757 -5.56952e-18)
(23.355 5.13719 3.08163e-18)
(23.237 5.2092 -3.53503e-18)
(23.1128 5.28366 5.87965e-18)
(22.9821 5.36065 6.77455e-20)
(22.8445 5.44026 -1.8408e-20)