/*--------------------------------*- C++ -*----------------------------------*\
  =========                 |
  \\      /  F ield         | OpenFOAM: The Open Source CFD Toolbox
   \\    /   O peration     | Website:  https://openfoam.org
    \\  /    A nd           | Version:  11
     \\/     M anipulation  |
\*---------------------------------------------------------------------------*/
FoamFile
{
    format      ascii;
    class       volScalarField;
    location    "250";
    object      nuTilda;
}
// * * * * * * * * * * * * * * * * * * * * * * * * * * * * * * * * * * * * * //

dimensions      [0 2 -1 0 0 0 0];

internalField   nonuniform List<scalar> 
31595
(
0.140021
0.140028
0.140026
0.140024
0.140019
0.140014
0.140009
0.140005
0.140003
0.140004
0.140008
0.140011
0.140015
0.140019
0.140022
0.140025
0.140027
0.14003
0.140032
0.140034
0.140037
0.140038
0.14004
0.140042
0.140044
0.140045
0.140046
0.140048
0.140049
0.14005
0.140051
0.140052
0.140053
0.140054
0.140054
0.140055
0.140055
0.140056
0.140056
0.140056
0.140056
0.140056
0.140056
0.140056
0.140055
0.140054
0.140053
0.140051
0.140048
0.140043
0.140039
0.140035
0.140031
0.140027
0.140023
0.140019
0.140014
0.140008
0.140003
0.139997
0.13999
0.139983
0.139975
0.139967
0.139958
0.139949
0.139938
0.139925
0.139911
0.139895
0.139877
0.139857
0.139833
0.139805
0.139772
0.139733
0.139686
0.139626
0.139557
0.139456
0.139354
0.139175
0.138985
0.13867
0.138366
0.137447
0.13643
0.131299
0.248431
0.140014
0.140022
0.140024
0.14002
0.140017
0.140012
0.140008
0.140004
0.140003
0.140004
0.140008
0.140011
0.140015
0.140018
0.140021
0.140024
0.140027
0.140029
0.140032
0.140034
0.140036
0.140038
0.14004
0.140042
0.140043
0.140045
0.140046
0.140047
0.140049
0.14005
0.140051
0.140052
0.140052
0.140053
0.140054
0.140055
0.140055
0.140056
0.140056
0.140056
0.140057
0.140057
0.140057
0.140057
0.140056
0.140056
0.140055
0.140053
0.140049
0.140045
0.140041
0.140037
0.140033
0.140029
0.140024
0.14002
0.140015
0.140009
0.140004
0.139997
0.139991
0.139983
0.139976
0.139967
0.139958
0.139948
0.139937
0.139924
0.13991
0.139894
0.139876
0.139855
0.139831
0.139803
0.13977
0.139731
0.139685
0.139625
0.139557
0.139458
0.139357
0.139181
0.139006
0.13867
0.138449
0.137436
0.136519
0.130073
0.240522
0.140011
0.14002
0.14002
0.140018
0.140015
0.140011
0.140007
0.140004
0.140003
0.140005
0.140008
0.140012
0.140015
0.140018
0.140021
0.140024
0.140027
0.140029
0.140031
0.140034
0.140036
0.140038
0.140039
0.140041
0.140043
0.140044
0.140046
0.140047
0.140048
0.140049
0.14005
0.140051
0.140052
0.140053
0.140054
0.140054
0.140055
0.140055
0.140056
0.140056
0.140056
0.140056
0.140056
0.140056
0.140056
0.140056
0.140055
0.140053
0.14005
0.140046
0.140042
0.140039
0.140035
0.140031
0.140027
0.140022
0.140017
0.140012
0.140007
0.14
0.139994
0.139987
0.139979
0.139971
0.139961
0.139951
0.13994
0.139927
0.139913
0.139897
0.139879
0.139858
0.139835
0.139807
0.139775
0.139738
0.139692
0.139637
0.139569
0.139484
0.13937
0.139222
0.139014
0.138733
0.138427
0.13746
0.136502
0.12891
0.233333
0.140009
0.140016
0.140017
0.140015
0.140012
0.140009
0.140006
0.140003
0.140003
0.140005
0.140008
0.140012
0.140015
0.140018
0.140021
0.140024
0.140027
0.140029
0.140031
0.140033
0.140035
0.140037
0.140039
0.140041
0.140042
0.140044
0.140045
0.140047
0.140048
0.140049
0.14005
0.140051
0.140052
0.140053
0.140053
0.140054
0.140055
0.140055
0.140056
0.140056
0.140056
0.140056
0.140057
0.140056
0.140056
0.140056
0.140055
0.140054
0.140051
0.140047
0.140044
0.14004
0.140036
0.140033
0.140028
0.140024
0.140019
0.140014
0.140009
0.140003
0.139997
0.13999
0.139982
0.139974
0.139965
0.139956
0.139945
0.139932
0.139919
0.139903
0.139886
0.139866
0.139844
0.139817
0.139787
0.13975
0.139707
0.139653
0.139588
0.139504
0.139398
0.139251
0.13906
0.138758
0.138437
0.137468
0.136501
0.127761
0.226387
0.140006
0.140013
0.140014
0.140013
0.14001
0.140007
0.140004
0.140002
0.140003
0.140006
0.140009
0.140012
0.140016
0.140019
0.140021
0.140024
0.140026
0.140029
0.140031
0.140033
0.140035
0.140037
0.140039
0.140041
0.140042
0.140044
0.140045
0.140046
0.140048
0.140049
0.14005
0.140051
0.140052
0.140053
0.140053
0.140054
0.140055
0.140055
0.140056
0.140056
0.140056
0.140056
0.140056
0.140056
0.140056
0.140056
0.140055
0.140054
0.140052
0.140048
0.140045
0.140041
0.140038
0.140034
0.14003
0.140026
0.140021
0.140016
0.140011
0.140005
0.139999
0.139993
0.139985
0.139978
0.139969
0.139959
0.139949
0.139937
0.139923
0.139908
0.139892
0.139872
0.13985
0.139825
0.139795
0.13976
0.139718
0.139667
0.139604
0.139523
0.139421
0.13928
0.139093
0.138802
0.138443
0.137494
0.136517
0.126854
0.219795
0.140005
0.14001
0.140011
0.14001
0.140008
0.140006
0.140003
0.140002
0.140004
0.140007
0.14001
0.140013
0.140016
0.140019
0.140021
0.140024
0.140027
0.140029
0.140031
0.140033
0.140035
0.140037
0.140039
0.14004
0.140042
0.140044
0.140045
0.140046
0.140047
0.140049
0.14005
0.140051
0.140052
0.140052
0.140053
0.140054
0.140054
0.140055
0.140055
0.140056
0.140056
0.140056
0.140056
0.140057
0.140056
0.140056
0.140055
0.140054
0.140052
0.140049
0.140046
0.140043
0.140039
0.140036
0.140032
0.140027
0.140023
0.140018
0.140013
0.140008
0.140002
0.139995
0.139988
0.13998
0.139972
0.139963
0.139952
0.139941
0.139928
0.139913
0.139897
0.139878
0.139857
0.139832
0.139803
0.139769
0.139728
0.139679
0.139618
0.13954
0.139441
0.139306
0.139124
0.138846
0.138448
0.13758
0.136529
0.127313
0.212856
0.140004
0.140008
0.140009
0.140008
0.140006
0.140004
0.140002
0.140002
0.140004
0.140007
0.140011
0.140014
0.140016
0.140019
0.140022
0.140024
0.140027
0.140029
0.140031
0.140033
0.140035
0.140037
0.140039
0.14004
0.140042
0.140043
0.140045
0.140046
0.140047
0.140048
0.14005
0.14005
0.140051
0.140052
0.140053
0.140054
0.140054
0.140055
0.140055
0.140056
0.140056
0.140056
0.140057
0.140057
0.140056
0.140056
0.140056
0.140055
0.140053
0.14005
0.140047
0.140044
0.14004
0.140037
0.140033
0.140029
0.140025
0.14002
0.140015
0.14001
0.140004
0.139998
0.139991
0.139983
0.139975
0.139966
0.139956
0.139944
0.139932
0.139918
0.139902
0.139884
0.139863
0.139839
0.139811
0.139778
0.139738
0.13969
0.139631
0.139556
0.13946
0.139331
0.139153
0.138885
0.138479
0.137661
0.136562
0.127566
0.20653
0.140003
0.140006
0.140007
0.140006
0.140005
0.140003
0.140002
0.140003
0.140005
0.140008
0.140011
0.140014
0.140017
0.14002
0.140022
0.140025
0.140027
0.140029
0.140031
0.140033
0.140035
0.140037
0.140039
0.14004
0.140042
0.140043
0.140045
0.140046
0.140047
0.140048
0.140049
0.14005
0.140051
0.140052
0.140053
0.140054
0.140054
0.140055
0.140055
0.140056
0.140056
0.140056
0.140057
0.140057
0.140057
0.140056
0.140056
0.140055
0.140053
0.140051
0.140048
0.140045
0.140041
0.140038
0.140034
0.14003
0.140026
0.140022
0.140017
0.140012
0.140006
0.14
0.139993
0.139986
0.139978
0.139969
0.139959
0.139948
0.139936
0.139922
0.139906
0.139889
0.139869
0.139845
0.139818
0.139786
0.139748
0.139701
0.139644
0.139571
0.139478
0.139353
0.139181
0.138922
0.138532
0.13774
0.136651
0.127853
0.200282
0.140002
0.140004
0.140005
0.140004
0.140003
0.140002
0.140002
0.140004
0.140007
0.140009
0.140012
0.140015
0.140017
0.14002
0.140022
0.140025
0.140027
0.140029
0.140031
0.140033
0.140035
0.140037
0.140039
0.14004
0.140042
0.140043
0.140045
0.140046
0.140047
0.140048
0.140049
0.14005
0.140051
0.140052
0.140053
0.140054
0.140054
0.140055
0.140055
0.140056
0.140056
0.140056
0.140057
0.140057
0.140057
0.140056
0.140056
0.140055
0.140054
0.140051
0.140049
0.140046
0.140042
0.140039
0.140036
0.140032
0.140028
0.140023
0.140019
0.140013
0.140008
0.140002
0.139995
0.139988
0.13998
0.139972
0.139962
0.139951
0.139939
0.139926
0.139911
0.139894
0.139874
0.139851
0.139825
0.139794
0.139756
0.139711
0.139655
0.139585
0.139495
0.139373
0.139207
0.138956
0.138579
0.137815
0.136782
0.128132
0.194399
0.140001
0.140003
0.140004
0.140003
0.140002
0.140002
0.140003
0.140005
0.140008
0.14001
0.140013
0.140016
0.140018
0.140021
0.140023
0.140025
0.140027
0.14003
0.140032
0.140034
0.140035
0.140037
0.140039
0.14004
0.140042
0.140043
0.140045
0.140046
0.140047
0.140048
0.140049
0.14005
0.140051
0.140052
0.140053
0.140054
0.140054
0.140055
0.140055
0.140056
0.140056
0.140056
0.140057
0.140057
0.140057
0.140057
0.140056
0.140056
0.140054
0.140052
0.140049
0.140046
0.140043
0.14004
0.140037
0.140033
0.140029
0.140025
0.14002
0.140015
0.14001
0.140004
0.139997
0.13999
0.139983
0.139974
0.139965
0.139954
0.139942
0.139929
0.139914
0.139898
0.139879
0.139856
0.139831
0.1398
0.139764
0.13972
0.139665
0.139597
0.139509
0.139392
0.139229
0.138989
0.138618
0.137884
0.13688
0.128501
0.189121
0.140001
0.140002
0.140002
0.140002
0.140001
0.140002
0.140004
0.140006
0.140009
0.140011
0.140014
0.140016
0.140019
0.140021
0.140023
0.140026
0.140028
0.14003
0.140032
0.140034
0.140036
0.140037
0.140039
0.140041
0.140042
0.140043
0.140045
0.140046
0.140047
0.140048
0.140049
0.14005
0.140051
0.140052
0.140053
0.140053
0.140054
0.140055
0.140055
0.140056
0.140056
0.140056
0.140057
0.140057
0.140057
0.140057
0.140056
0.140056
0.140055
0.140053
0.14005
0.140047
0.140044
0.140041
0.140038
0.140034
0.14003
0.140026
0.140022
0.140017
0.140011
0.140006
0.139999
0.139992
0.139985
0.139976
0.139967
0.139957
0.139945
0.139933
0.139918
0.139902
0.139883
0.139861
0.139836
0.139806
0.139771
0.139728
0.139675
0.139609
0.139523
0.139409
0.139251
0.139019
0.138657
0.13795
0.136977
0.128882
0.184039
0.14
0.140001
0.140001
0.140001
0.140001
0.140003
0.140005
0.140007
0.14001
0.140012
0.140015
0.140017
0.140019
0.140022
0.140024
0.140026
0.140028
0.14003
0.140032
0.140034
0.140036
0.140038
0.140039
0.140041
0.140042
0.140044
0.140045
0.140046
0.140047
0.140048
0.140049
0.14005
0.140051
0.140052
0.140053
0.140054
0.140054
0.140055
0.140055
0.140056
0.140056
0.140056
0.140057
0.140057
0.140057
0.140057
0.140056
0.140056
0.140055
0.140053
0.140051
0.140048
0.140045
0.140042
0.140039
0.140035
0.140031
0.140027
0.140023
0.140018
0.140013
0.140007
0.140001
0.139994
0.139987
0.139979
0.13997
0.139959
0.139948
0.139936
0.139922
0.139906
0.139887
0.139866
0.139842
0.139813
0.139778
0.139736
0.139685
0.13962
0.139537
0.139426
0.139273
0.139048
0.138697
0.138015
0.137084
0.129243
0.178997
0.14
0.140001
0.140001
0.140001
0.140002
0.140004
0.140006
0.140009
0.140011
0.140013
0.140015
0.140018
0.14002
0.140022
0.140025
0.140027
0.140029
0.140031
0.140033
0.140034
0.140036
0.140038
0.140039
0.140041
0.140042
0.140044
0.140045
0.140046
0.140047
0.140048
0.140049
0.14005
0.140051
0.140052
0.140053
0.140054
0.140054
0.140055
0.140055
0.140056
0.140056
0.140056
0.140057
0.140057
0.140057
0.140057
0.140057
0.140056
0.140055
0.140053
0.140051
0.140049
0.140046
0.140043
0.14004
0.140036
0.140032
0.140028
0.140024
0.140019
0.140014
0.140009
0.140003
0.139996
0.139989
0.139981
0.139972
0.139962
0.139951
0.139939
0.139925
0.139909
0.139891
0.139871
0.139846
0.139818
0.139784
0.139743
0.139693
0.13963
0.139549
0.139441
0.139292
0.139073
0.138736
0.138075
0.137188
0.129597
0.174245
0.14
0.14
0.140001
0.140002
0.140004
0.140005
0.140007
0.14001
0.140012
0.140014
0.140016
0.140019
0.140021
0.140023
0.140025
0.140027
0.140029
0.140031
0.140033
0.140035
0.140037
0.140038
0.14004
0.140041
0.140043
0.140044
0.140045
0.140046
0.140047
0.140049
0.14005
0.14005
0.140051
0.140052
0.140053
0.140054
0.140054
0.140055
0.140055
0.140056
0.140056
0.140057
0.140057
0.140057
0.140057
0.140057
0.140057
0.140056
0.140056
0.140054
0.140052
0.140049
0.140046
0.140044
0.14004
0.140037
0.140034
0.14003
0.140025
0.140021
0.140016
0.14001
0.140004
0.139998
0.13999
0.139982
0.139974
0.139964
0.139953
0.139941
0.139927
0.139912
0.139894
0.139874
0.13985
0.139822
0.139789
0.139749
0.139699
0.139637
0.139558
0.139453
0.139307
0.139094
0.138762
0.138123
0.13724
0.130016
0.169985
0.14
0.140001
0.140002
0.140003
0.140005
0.140006
0.140008
0.140011
0.140013
0.140015
0.140017
0.140019
0.140022
0.140024
0.140026
0.140028
0.14003
0.140032
0.140033
0.140035
0.140037
0.140038
0.14004
0.140041
0.140043
0.140044
0.140045
0.140047
0.140048
0.140049
0.14005
0.140051
0.140051
0.140052
0.140053
0.140054
0.140054
0.140055
0.140055
0.140056
0.140056
0.140057
0.140057
0.140057
0.140057
0.140057
0.140057
0.140057
0.140056
0.140054
0.140052
0.14005
0.140047
0.140044
0.140041
0.140038
0.140034
0.140031
0.140026
0.140022
0.140017
0.140011
0.140006
0.139999
0.139992
0.139984
0.139976
0.139966
0.139956
0.139944
0.139931
0.139915
0.139898
0.139878
0.139855
0.139827
0.139795
0.139755
0.139707
0.139647
0.139569
0.139467
0.139325
0.139118
0.138797
0.138181
0.137322
0.13042
0.165666
0.14
0.140001
0.140002
0.140004
0.140005
0.140007
0.140009
0.140011
0.140014
0.140016
0.140018
0.14002
0.140022
0.140024
0.140026
0.140028
0.14003
0.140032
0.140034
0.140036
0.140037
0.140039
0.14004
0.140042
0.140043
0.140044
0.140046
0.140047
0.140048
0.140049
0.14005
0.140051
0.140052
0.140052
0.140053
0.140054
0.140054
0.140055
0.140056
0.140056
0.140056
0.140057
0.140057
0.140057
0.140057
0.140057
0.140057
0.140057
0.140056
0.140055
0.140053
0.14005
0.140048
0.140045
0.140042
0.140039
0.140035
0.140031
0.140027
0.140023
0.140018
0.140013
0.140007
0.140001
0.139994
0.139986
0.139978
0.139968
0.139958
0.139946
0.139933
0.139918
0.139901
0.139882
0.139859
0.139832
0.1398
0.139761
0.139714
0.139655
0.139579
0.139479
0.139341
0.13914
0.138828
0.138234
0.137401
0.130821
0.161479
0.140001
0.140002
0.140003
0.140005
0.140006
0.140008
0.14001
0.140012
0.140015
0.140017
0.140019
0.140021
0.140023
0.140025
0.140027
0.140029
0.140031
0.140033
0.140034
0.140036
0.140038
0.140039
0.140041
0.140042
0.140043
0.140045
0.140046
0.140047
0.140048
0.140049
0.14005
0.140051
0.140052
0.140053
0.140053
0.140054
0.140055
0.140055
0.140056
0.140056
0.140057
0.140057
0.140057
0.140057
0.140057
0.140057
0.140057
0.140057
0.140056
0.140055
0.140053
0.140051
0.140048
0.140046
0.140043
0.14004
0.140036
0.140032
0.140028
0.140024
0.140019
0.140014
0.140008
0.140002
0.139995
0.139987
0.139979
0.13997
0.13996
0.139948
0.139935
0.139921
0.139904
0.139885
0.139862
0.139835
0.139804
0.139766
0.13972
0.139662
0.139588
0.13949
0.139355
0.139158
0.138854
0.138279
0.137449
0.131231
0.157568
0.140001
0.140002
0.140004
0.140005
0.140007
0.140009
0.140011
0.140013
0.140015
0.140018
0.14002
0.140022
0.140024
0.140026
0.140028
0.14003
0.140032
0.140033
0.140035
0.140037
0.140038
0.14004
0.140041
0.140042
0.140044
0.140045
0.140046
0.140047
0.140048
0.140049
0.14005
0.140051
0.140052
0.140053
0.140053
0.140054
0.140055
0.140055
0.140056
0.140056
0.140057
0.140057
0.140057
0.140057
0.140058
0.140058
0.140057
0.140057
0.140057
0.140056
0.140054
0.140051
0.140049
0.140046
0.140043
0.14004
0.140037
0.140033
0.140029
0.140025
0.14002
0.140015
0.140009
0.140003
0.139996
0.139989
0.139981
0.139972
0.139962
0.13995
0.139938
0.139923
0.139907
0.139887
0.139865
0.139839
0.139808
0.139771
0.139725
0.139668
0.139596
0.1395
0.139368
0.139176
0.138878
0.13832
0.13749
0.131654
0.15374
0.140001
0.140002
0.140004
0.140006
0.140008
0.14001
0.140012
0.140014
0.140016
0.140018
0.140021
0.140023
0.140025
0.140027
0.140029
0.14003
0.140032
0.140034
0.140036
0.140037
0.140039
0.14004
0.140042
0.140043
0.140044
0.140045
0.140047
0.140048
0.140049
0.14005
0.140051
0.140051
0.140052
0.140053
0.140054
0.140054
0.140055
0.140055
0.140056
0.140056
0.140057
0.140057
0.140057
0.140058
0.140058
0.140058
0.140058
0.140057
0.140057
0.140056
0.140054
0.140052
0.140049
0.140047
0.140044
0.140041
0.140037
0.140034
0.14003
0.140026
0.140021
0.140016
0.14001
0.140004
0.139998
0.13999
0.139982
0.139973
0.139964
0.139952
0.13994
0.139925
0.139909
0.13989
0.139868
0.139842
0.139812
0.139775
0.139731
0.139675
0.139604
0.13951
0.13938
0.139193
0.138901
0.138369
0.137533
0.132097
0.149925
0.140001
0.140003
0.140005
0.140007
0.140009
0.140011
0.140013
0.140015
0.140017
0.140019
0.140021
0.140023
0.140025
0.140027
0.140029
0.140031
0.140033
0.140035
0.140036
0.140038
0.140039
0.140041
0.140042
0.140043
0.140045
0.140046
0.140047
0.140048
0.140049
0.14005
0.140051
0.140052
0.140052
0.140053
0.140054
0.140055
0.140055
0.140056
0.140056
0.140057
0.140057
0.140057
0.140058
0.140058
0.140058
0.140058
0.140058
0.140058
0.140057
0.140056
0.140054
0.140052
0.14005
0.140047
0.140044
0.140041
0.140038
0.140035
0.140031
0.140026
0.140022
0.140017
0.140011
0.140005
0.139999
0.139992
0.139984
0.139975
0.139965
0.139954
0.139942
0.139927
0.139911
0.139893
0.139871
0.139846
0.139816
0.13978
0.139736
0.139681
0.139612
0.13952
0.139393
0.13921
0.138925
0.138409
0.137561
0.13253
0.146231
0.140001
0.140003
0.140005
0.140007
0.140009
0.140011
0.140014
0.140016
0.140018
0.14002
0.140022
0.140024
0.140026
0.140028
0.14003
0.140032
0.140034
0.140035
0.140037
0.140038
0.14004
0.140041
0.140043
0.140044
0.140045
0.140046
0.140047
0.140048
0.140049
0.14005
0.140051
0.140052
0.140053
0.140053
0.140054
0.140055
0.140055
0.140056
0.140056
0.140057
0.140057
0.140057
0.140058
0.140058
0.140058
0.140058
0.140058
0.140058
0.140057
0.140057
0.140055
0.140053
0.14005
0.140048
0.140045
0.140042
0.140039
0.140035
0.140031
0.140027
0.140023
0.140018
0.140012
0.140006
0.14
0.139993
0.139985
0.139976
0.139966
0.139955
0.139943
0.139929
0.139913
0.139894
0.139873
0.139848
0.139818
0.139783
0.139739
0.139686
0.139617
0.139526
0.139401
0.139221
0.138939
0.138438
0.137564
0.132967
0.142549
0.140001
0.140003
0.140006
0.140008
0.14001
0.140012
0.140014
0.140017
0.140019
0.140021
0.140023
0.140025
0.140027
0.140029
0.140031
0.140032
0.140034
0.140036
0.140037
0.140039
0.14004
0.140042
0.140043
0.140044
0.140045
0.140047
0.140048
0.140049
0.14005
0.140051
0.140051
0.140052
0.140053
0.140054
0.140054
0.140055
0.140056
0.140056
0.140057
0.140057
0.140057
0.140058
0.140058
0.140058
0.140058
0.140058
0.140058
0.140058
0.140057
0.140056
0.140055
0.140053
0.140051
0.140048
0.140046
0.140043
0.140039
0.140036
0.140032
0.140028
0.140023
0.140018
0.140013
0.140007
0.140001
0.139994
0.139986
0.139977
0.139968
0.139957
0.139944
0.13993
0.139914
0.139896
0.139875
0.13985
0.139821
0.139786
0.139743
0.13969
0.139622
0.139533
0.13941
0.139234
0.138955
0.138479
0.137568
0.133479
0.138769
0.140001
0.140004
0.140006
0.140008
0.140011
0.140013
0.140015
0.140017
0.14002
0.140022
0.140024
0.140026
0.140028
0.14003
0.140031
0.140033
0.140035
0.140036
0.140038
0.140039
0.140041
0.140042
0.140044
0.140045
0.140046
0.140047
0.140048
0.140049
0.14005
0.140051
0.140052
0.140053
0.140053
0.140054
0.140055
0.140055
0.140056
0.140056
0.140057
0.140057
0.140058
0.140058
0.140058
0.140058
0.140058
0.140058
0.140058
0.140058
0.140058
0.140057
0.140055
0.140053
0.140051
0.140049
0.140046
0.140043
0.14004
0.140036
0.140033
0.140029
0.140024
0.140019
0.140014
0.140008
0.140002
0.139995
0.139987
0.139978
0.139969
0.139958
0.139945
0.139932
0.139916
0.139898
0.139877
0.139853
0.139824
0.13979
0.139748
0.139695
0.139629
0.139541
0.13942
0.139248
0.138973
0.138514
0.137565
0.133965
0.134852
0.140001
0.140004
0.140006
0.140009
0.140011
0.140014
0.140016
0.140018
0.14002
0.140023
0.140025
0.140027
0.140029
0.14003
0.140032
0.140034
0.140036
0.140037
0.140039
0.14004
0.140041
0.140043
0.140044
0.140045
0.140046
0.140047
0.140048
0.140049
0.14005
0.140051
0.140052
0.140053
0.140054
0.140054
0.140055
0.140055
0.140056
0.140057
0.140057
0.140057
0.140058
0.140058
0.140058
0.140059
0.140059
0.140059
0.140059
0.140058
0.140058
0.140057
0.140056
0.140054
0.140052
0.140049
0.140046
0.140043
0.14004
0.140037
0.140033
0.140029
0.140025
0.14002
0.140015
0.140009
0.140003
0.139995
0.139988
0.139979
0.139969
0.139958
0.139946
0.139932
0.139917
0.139899
0.139879
0.139855
0.139826
0.139792
0.139751
0.139699
0.139633
0.139546
0.139427
0.139256
0.138983
0.13854
0.137533
0.134487
0.130618
0.140001
0.140004
0.140007
0.140009
0.140012
0.140014
0.140017
0.140019
0.140021
0.140023
0.140025
0.140027
0.140029
0.140031
0.140033
0.140035
0.140036
0.140038
0.140039
0.140041
0.140042
0.140043
0.140045
0.140046
0.140047
0.140048
0.140049
0.14005
0.140051
0.140052
0.140052
0.140053
0.140054
0.140055
0.140055
0.140056
0.140056
0.140057
0.140057
0.140058
0.140058
0.140058
0.140058
0.140059
0.140059
0.140059
0.140059
0.140058
0.140058
0.140057
0.140055
0.140053
0.140051
0.140049
0.140047
0.140044
0.140041
0.140038
0.140034
0.14003
0.140025
0.14002
0.140015
0.140009
0.140003
0.139996
0.139988
0.139979
0.139969
0.139959
0.139947
0.139933
0.139918
0.1399
0.13988
0.139856
0.139828
0.139794
0.139752
0.139701
0.139635
0.139549
0.13943
0.139262
0.138988
0.138568
0.137486
0.135139
0.125765
0.140001
0.140004
0.140007
0.14001
0.140012
0.140015
0.140017
0.14002
0.140022
0.140024
0.140026
0.140028
0.14003
0.140032
0.140034
0.140035
0.140037
0.140038
0.14004
0.140041
0.140043
0.140044
0.140045
0.140046
0.140047
0.140048
0.140049
0.14005
0.140051
0.140052
0.140053
0.140054
0.140054
0.140055
0.140055
0.140056
0.140057
0.140057
0.140057
0.140058
0.140058
0.140059
0.140059
0.140059
0.140059
0.140059
0.140059
0.140059
0.140058
0.140058
0.140056
0.140055
0.140053
0.14005
0.140048
0.140045
0.140042
0.140038
0.140034
0.14003
0.140026
0.140021
0.140015
0.140009
0.140003
0.139996
0.139988
0.139979
0.13997
0.139959
0.139947
0.139934
0.139919
0.139901
0.139881
0.139857
0.139829
0.139796
0.139755
0.139703
0.139638
0.139553
0.139435
0.139268
0.138996
0.138591
0.137426
0.135796
0.119833
0.140002
0.140005
0.140007
0.14001
0.140013
0.140015
0.140018
0.14002
0.140023
0.140025
0.140027
0.140029
0.140031
0.140033
0.140034
0.140036
0.140038
0.140039
0.140041
0.140042
0.140043
0.140044
0.140046
0.140047
0.140048
0.140049
0.14005
0.140051
0.140052
0.140052
0.140053
0.140054
0.140055
0.140055
0.140056
0.140056
0.140057
0.140057
0.140058
0.140058
0.140058
0.140059
0.140059
0.140059
0.140059
0.140059
0.140059
0.140059
0.140059
0.140058
0.140057
0.140056
0.140053
0.140051
0.140048
0.140045
0.140041
0.140038
0.140034
0.14003
0.140025
0.140021
0.140015
0.14001
0.140003
0.139996
0.139989
0.13998
0.139971
0.139961
0.139949
0.139936
0.139921
0.139904
0.139884
0.139861
0.139833
0.139801
0.13976
0.139711
0.139647
0.139564
0.139449
0.139287
0.139019
0.138636
0.137404
0.136566
0.112061
0.140002
0.140005
0.140008
0.140011
0.140013
0.140016
0.140019
0.140021
0.140023
0.140025
0.140028
0.14003
0.140031
0.140033
0.140035
0.140037
0.140038
0.14004
0.140041
0.140043
0.140044
0.140045
0.140046
0.140047
0.140048
0.140049
0.14005
0.140051
0.140052
0.140053
0.140054
0.140054
0.140055
0.140056
0.140056
0.140057
0.140057
0.140058
0.140058
0.140058
0.140059
0.140059
0.140059
0.140059
0.140059
0.140059
0.140059
0.140059
0.140058
0.140057
0.140056
0.140054
0.140051
0.140049
0.140046
0.140043
0.14004
0.140037
0.140033
0.140029
0.140025
0.14002
0.140015
0.140009
0.140003
0.139996
0.139989
0.139981
0.139971
0.139961
0.139949
0.139936
0.139921
0.139904
0.139883
0.13986
0.139832
0.139799
0.139758
0.139707
0.139643
0.139558
0.139442
0.139278
0.139007
0.13863
0.13733
0.137135
0.102009
0.140002
0.140005
0.140008
0.140011
0.140014
0.140017
0.140019
0.140022
0.140024
0.140026
0.140028
0.14003
0.140032
0.140034
0.140036
0.140037
0.140039
0.14004
0.140042
0.140043
0.140044
0.140046
0.140047
0.140048
0.140049
0.14005
0.140051
0.140052
0.140052
0.140053
0.140054
0.140055
0.140055
0.140056
0.140056
0.140057
0.140057
0.140058
0.140058
0.140059
0.140059
0.140059
0.140059
0.14006
0.14006
0.14006
0.14006
0.140059
0.140059
0.140058
0.140057
0.140055
0.140053
0.140051
0.140048
0.140045
0.140042
0.140039
0.140035
0.140031
0.140027
0.140022
0.140017
0.140011
0.140005
0.139998
0.13999
0.139981
0.139972
0.139961
0.139949
0.139935
0.139919
0.139901
0.13988
0.139855
0.139826
0.139791
0.139749
0.139696
0.139628
0.13954
0.139419
0.139247
0.138965
0.138567
0.137256
0.136859
0.10219
0.140002
0.140005
0.140008
0.140011
0.140014
0.140017
0.14002
0.140022
0.140024
0.140027
0.140029
0.140031
0.140033
0.140035
0.140036
0.140038
0.140039
0.140041
0.140042
0.140044
0.140045
0.140046
0.140047
0.140048
0.140049
0.14005
0.140051
0.140052
0.140053
0.140054
0.140054
0.140055
0.140056
0.140056
0.140057
0.140057
0.140058
0.140058
0.140059
0.140059
0.140059
0.140059
0.14006
0.14006
0.14006
0.14006
0.14006
0.14006
0.140059
0.140059
0.140058
0.140056
0.140054
0.140052
0.140049
0.140046
0.140043
0.14004
0.140036
0.140032
0.140028
0.140023
0.140018
0.140012
0.140006
0.139999
0.139991
0.139983
0.139973
0.139962
0.13995
0.139937
0.139921
0.139903
0.139883
0.139859
0.13983
0.139796
0.139754
0.139702
0.139636
0.13955
0.139431
0.139263
0.138988
0.13859
0.137369
0.136342
0.111878
0.140002
0.140005
0.140009
0.140012
0.140015
0.140017
0.14002
0.140023
0.140025
0.140027
0.140029
0.140031
0.140033
0.140035
0.140037
0.140038
0.14004
0.140042
0.140043
0.140044
0.140045
0.140047
0.140048
0.140049
0.14005
0.140051
0.140052
0.140052
0.140053
0.140054
0.140055
0.140055
0.140056
0.140057
0.140057
0.140058
0.140058
0.140058
0.140059
0.140059
0.140059
0.14006
0.14006
0.14006
0.14006
0.14006
0.14006
0.140059
0.140059
0.140058
0.140056
0.140054
0.140052
0.14005
0.140047
0.140044
0.140041
0.140038
0.140034
0.14003
0.140026
0.140022
0.140016
0.140011
0.140005
0.139998
0.139991
0.139983
0.139973
0.139963
0.139951
0.139938
0.139923
0.139906
0.139886
0.139862
0.139835
0.139801
0.13976
0.13971
0.139645
0.13956
0.139443
0.139276
0.139006
0.138589
0.137471
0.13556
0.120156
0.140002
0.140005
0.140009
0.140012
0.140015
0.140018
0.14002
0.140023
0.140025
0.140028
0.14003
0.140032
0.140034
0.140036
0.140037
0.140039
0.140041
0.140042
0.140043
0.140045
0.140046
0.140047
0.140048
0.140049
0.14005
0.140051
0.140052
0.140053
0.140054
0.140054
0.140055
0.140056
0.140056
0.140057
0.140057
0.140058
0.140058
0.140059
0.140059
0.140059
0.14006
0.14006
0.14006
0.14006
0.14006
0.14006
0.14006
0.14006
0.140059
0.140059
0.140057
0.140055
0.140053
0.14005
0.140048
0.140044
0.140041
0.140038
0.140034
0.14003
0.140026
0.140021
0.140016
0.14001
0.140004
0.139997
0.139989
0.139981
0.139972
0.139961
0.139949
0.139936
0.139921
0.139904
0.139883
0.13986
0.139831
0.139798
0.139756
0.139705
0.139639
0.139552
0.139433
0.139263
0.138991
0.138554
0.137509
0.134856
0.126223
0.140002
0.140005
0.140009
0.140012
0.140015
0.140018
0.140021
0.140023
0.140026
0.140028
0.14003
0.140032
0.140034
0.140036
0.140038
0.14004
0.140041
0.140043
0.140044
0.140045
0.140047
0.140048
0.140049
0.14005
0.140051
0.140052
0.140053
0.140053
0.140054
0.140055
0.140056
0.140056
0.140057
0.140057
0.140058
0.140058
0.140059
0.140059
0.140059
0.14006
0.14006
0.14006
0.14006
0.14006
0.140061
0.14006
0.14006
0.14006
0.14006
0.140059
0.140058
0.140056
0.140054
0.140051
0.140049
0.140046
0.140042
0.140039
0.140035
0.14003
0.140026
0.140021
0.140016
0.14001
0.140003
0.139996
0.139989
0.13998
0.139971
0.13996
0.139948
0.139935
0.139919
0.139902
0.139881
0.139857
0.139829
0.139795
0.139753
0.139701
0.139634
0.139547
0.139426
0.139254
0.138979
0.138528
0.137547
0.13429
0.13113
0.140002
0.140006
0.140009
0.140012
0.140015
0.140018
0.140021
0.140024
0.140026
0.140029
0.140031
0.140033
0.140035
0.140037
0.140038
0.14004
0.140042
0.140043
0.140044
0.140046
0.140047
0.140048
0.140049
0.14005
0.140051
0.140052
0.140053
0.140054
0.140055
0.140055
0.140056
0.140057
0.140057
0.140058
0.140058
0.140059
0.140059
0.140059
0.14006
0.14006
0.14006
0.14006
0.140061
0.140061
0.140061
0.140061
0.14006
0.14006
0.14006
0.140058
0.140057
0.140055
0.140053
0.140051
0.140048
0.140045
0.140042
0.140039
0.140035
0.140031
0.140026
0.140021
0.140016
0.14001
0.140003
0.139996
0.139988
0.13998
0.13997
0.13996
0.139948
0.139934
0.139919
0.139901
0.13988
0.139856
0.139828
0.139794
0.139752
0.1397
0.139633
0.139545
0.139424
0.139249
0.138974
0.138497
0.137577
0.133683
0.135408
0.140002
0.140006
0.140009
0.140012
0.140016
0.140019
0.140021
0.140024
0.140027
0.140029
0.140031
0.140033
0.140035
0.140037
0.140039
0.140041
0.140042
0.140044
0.140045
0.140046
0.140047
0.140049
0.14005
0.140051
0.140052
0.140053
0.140053
0.140054
0.140055
0.140056
0.140056
0.140057
0.140058
0.140058
0.140059
0.140059
0.140059
0.14006
0.14006
0.14006
0.140061
0.140061
0.140061
0.140061
0.140061
0.140061
0.140061
0.14006
0.14006
0.140059
0.140057
0.140055
0.140053
0.14005
0.140048
0.140045
0.140042
0.140039
0.140035
0.140031
0.140026
0.140021
0.140015
0.140009
0.140003
0.139996
0.139988
0.139979
0.139969
0.139959
0.139946
0.139933
0.139917
0.139899
0.139878
0.139854
0.139825
0.139791
0.139748
0.139696
0.139628
0.139539
0.139416
0.139238
0.13896
0.138467
0.137586
0.133201
0.139323
0.140002
0.140006
0.140009
0.140013
0.140016
0.140019
0.140022
0.140024
0.140027
0.140029
0.140031
0.140034
0.140036
0.140037
0.140039
0.140041
0.140043
0.140044
0.140045
0.140047
0.140048
0.140049
0.14005
0.140051
0.140052
0.140053
0.140054
0.140055
0.140055
0.140056
0.140057
0.140057
0.140058
0.140058
0.140059
0.140059
0.14006
0.14006
0.14006
0.140061
0.140061
0.140061
0.140061
0.140061
0.140061
0.140061
0.140061
0.140061
0.14006
0.140059
0.140058
0.140056
0.140053
0.140051
0.140048
0.140045
0.140042
0.140038
0.140034
0.14003
0.140026
0.140021
0.140015
0.140009
0.140003
0.139995
0.139987
0.139978
0.139969
0.139958
0.139945
0.139931
0.139915
0.139897
0.139876
0.139851
0.139822
0.139787
0.139744
0.13969
0.139622
0.139531
0.139406
0.139226
0.138943
0.138437
0.137581
0.132761
0.143073
0.140002
0.140006
0.140009
0.140013
0.140016
0.140019
0.140022
0.140024
0.140027
0.140029
0.140032
0.140034
0.140036
0.140038
0.14004
0.140041
0.140043
0.140044
0.140046
0.140047
0.140048
0.14005
0.140051
0.140052
0.140053
0.140054
0.140054
0.140055
0.140056
0.140057
0.140057
0.140058
0.140058
0.140059
0.140059
0.14006
0.14006
0.14006
0.140061
0.140061
0.140061
0.140061
0.140061
0.140061
0.140061
0.140061
0.140061
0.140061
0.14006
0.140059
0.140057
0.140055
0.140053
0.140051
0.140048
0.140045
0.140041
0.140038
0.140034
0.14003
0.140025
0.14002
0.140015
0.140009
0.140002
0.139995
0.139987
0.139978
0.139968
0.139957
0.139944
0.13993
0.139914
0.139896
0.139875
0.13985
0.13982
0.139785
0.139741
0.139687
0.139617
0.139525
0.139399
0.139214
0.138928
0.138397
0.137564
0.132292
0.146811
0.140002
0.140006
0.140009
0.140013