/*--------------------------------*- C++ -*----------------------------------*\
  =========                 |
  \\      /  F ield         | OpenFOAM: The Open Source CFD Toolbox
   \\    /   O peration     | Website:  https://openfoam.org
    \\  /    A nd           | Version:  11
     \\/     M anipulation  |
\*---------------------------------------------------------------------------*/
FoamFile
{
    format      ascii;
    class       volScalarField;
    location    "250";
    object      p;
}
// * * * * * * * * * * * * * * * * * * * * * * * * * * * * * * * * * * * * * //

dimensions      [0 2 -2 0 0 0 0];

internalField   nonuniform List<scalar> 
31595
(
0.194091
0.104465
0.155895
0.149045
0.173117
0.176612
0.195426
0.204284
0.219942
0.231545
0.246134
0.259118
0.273485
0.287312
0.301824
0.316239
0.331035
0.345898
0.360996
0.376198
0.391545
0.40697
0.422464
0.437977
0.453479
0.468921
0.484262
0.499455
0.514454
0.529208
0.543675
0.557808
0.57157
0.584925
0.597845
0.61031
0.622312
0.633852
0.644943
0.655613
0.665906
0.675881
0.685612
0.695192
0.70473
0.714347
0.724188
0.734406
0.745173
0.756673
0.769102
0.782669
0.79759
0.814095
0.832416
0.852796
0.875479
0.900722
0.928773
0.95989
0.994328
1.03234
1.07417
1.12006
1.17023
1.2249
1.28423
1.34838
1.41745
1.49144
1.57031
1.65387
1.74173
1.83342
1.92776
2.02416
2.11907
2.21365
2.29534
2.37804
2.41262
2.47388
2.37357
2.41899
1.96671
2.02127
0.769078
0.768705
-2.34423
0.155974
0.125092
0.140187
0.154931
0.168367
0.178905
0.192759
0.204801
0.21807
0.23086
0.244307
0.257653
0.27141
0.285262
0.299409
0.313723
0.328277
0.343012
0.357946
0.373044
0.388299
0.403681
0.419166
0.434724
0.450327
0.465939
0.481526
0.497052
0.51248
0.527776
0.542908
0.557843
0.572555
0.587022
0.601233
0.615179
0.628865
0.642305
0.655523
0.668559
0.681467
0.694315
0.707185
0.720177
0.733405
0.746999
0.761105
0.775882
0.791508
0.808169
0.826067
0.845415
0.866439
0.889371
0.914456
0.941947
0.972101
1.00519
1.04147
1.08123
1.12475
1.1723
1.22416
1.2806
1.34188
1.40826
1.47996
1.55717
1.64006
1.72872
1.82314
1.92326
2.02875
2.13924
2.2537
2.3715
2.48952
2.60837
2.7168
2.8265
2.89179
2.98242
2.9141
2.99411
2.55761
2.66934
1.37313
1.45817
-1.68395
0.142068
0.130886
0.136199
0.155035
0.167262
0.178892
0.19156
0.204138
0.216742
0.229565
0.242592
0.255819
0.269268
0.282945
0.296853
0.310992
0.325359
0.339947
0.354748
0.369748
0.384933
0.400287
0.41579
0.431418
0.447149
0.462957
0.478818
0.494705
0.510593
0.526456
0.542274
0.558029
0.573706
0.589297
0.6048
0.620223
0.635579
0.650895
0.666208
0.681567
0.697036
0.712692
0.728625
0.744943
0.761764
0.779227
0.797483
0.816697
0.837048
0.858732
0.881955
0.906938
0.933911
0.963119
0.994814
1.02926
1.06673
1.10751
1.15189
1.20015
1.25261
1.30957
1.37134
1.43823
1.51054
1.58856
1.67258
1.76284
1.85958
1.96296
2.07308
2.18993
2.31332
2.44296
2.57803
2.71789
2.85985
3.00406
3.14068
3.27898
3.37796
3.49936
3.47021
3.58334
3.17898
3.33976
2.01436
2.13516
-1.2106
0.140175
0.133495
0.136033
0.154257
0.167068
0.178367
0.190674
0.20307
0.215415
0.22797
0.240738
0.25372
0.266929
0.280383
0.294083
0.308033
0.322231
0.336675
0.351359
0.366274
0.381411
0.396758
0.4123
0.428022
0.443907
0.459939
0.476101
0.492375
0.508746
0.525199
0.541724
0.558314
0.574967
0.591684
0.608478
0.625365
0.642372
0.659534
0.676901
0.694533
0.7125
0.730888
0.749798
0.769341
0.789648
0.81086
0.833135
0.856645
0.881576
0.908128
0.936517
0.966968
0.999723
1.03503
1.07317
1.1144
1.15902
1.20732
1.25961
1.31622
1.37748
1.4437
1.51525
1.59246
1.67569
1.76527
1.86154
1.96483
2.07542
2.19357
2.31947
2.45323
2.59475
2.74389
2.90003
3.06257
3.22927
3.39993
3.56607
3.73472
3.86979
4.02424
4.03971
4.18647
3.82786
4.03326
2.69021
2.82872
-0.823232
0.14081
0.136697
0.136896
0.15396
0.167
0.177911
0.189764
0.201878
0.213941
0.226194
0.238684
0.251405
0.264367
0.277591
0.291081
0.304842
0.318876
0.333181
0.347756
0.362597
0.377697
0.39305
0.408647
0.424479
0.440536
0.456807
0.473286
0.489962
0.506829
0.523883
0.541123
0.558552
0.57618
0.594018
0.612087
0.630416
0.649044
0.668016
0.68739
0.707234
0.727631
0.748674
0.770471
0.793143
0.816826
0.841668
0.867836
0.895506
0.924873
0.956144
0.989542
1.0253
1.06367
1.10492
1.14932
1.19717
1.24876
1.30442
1.36447
1.42927
1.49915
1.5745
1.65569
1.74309
1.83712
1.93817
2.04664
2.1629
2.28733
2.42028
2.56204
2.71282
2.8727
3.04164
3.21923
3.40503
3.59714
3.79521
3.99195
4.19257
4.36554
4.55533
4.6191
4.80094
4.49759
4.74365
3.39654
3.65909
-0.0237366
0.14253
0.140265
0.138407
0.154011
0.166995
0.177475
0.1888
0.200551
0.212296
0.22422
0.236411
0.248854
0.261561
0.274548
0.287824
0.301395
0.315264
0.329435
0.343906
0.358679
0.37375
0.389118
0.40478
0.420731
0.436969
0.453491
0.470295
0.487381
0.50475
0.522408
0.540363
0.558628
0.57722
0.596161
0.615485
0.635228
0.655439
0.676173
0.697499
0.719492
0.742245
0.765858
0.790448
0.816144
0.843088
0.871437
0.901364
0.933055
0.966709
1.00254
1.04079
1.08169
1.1255
1.17251
1.223
1.27728
1.33566
1.39849
1.46612
1.53892
1.61726
1.70156
1.79221
1.88967
1.99436
2.10674
2.22727
2.35641
2.49462
2.64233
2.79995
2.96782
3.14617
3.33514
3.53448
3.74394
3.96205
4.18837
4.41673
4.65085
4.86342
5.09115
5.20656
5.42643
5.18723
5.47146
4.14715
4.57265
0.818952
0.144249
0.143764
0.140228
0.154245
0.166952
0.176992
0.187737
0.199064
0.210454
0.22203
0.233898
0.24605
0.258488
0.271231
0.284287
0.297665
0.311368
0.325402
0.339772
0.354477
0.369524
0.384911
0.400641
0.416716
0.433139
0.449913
0.467044
0.484539
0.502407
0.520663
0.539323
0.558408
0.577944
0.597966
0.618512
0.639631
0.661379
0.683822
0.707035
0.731105
0.756131
0.782223
0.809505
0.838113
0.868198
0.899924
0.933471
0.969032
1.00682
1.04705
1.08997
1.13583
1.1849
1.23748
1.29386
1.35437
1.41934
1.48914
1.56413
1.64472
1.73131
1.82433
1.92425
2.03154
2.14669
2.2702
2.40262
2.54447
2.6963
2.85864
3.03202
3.21691
3.41373
3.62277
3.84403
4.07746
4.32199
4.57726
4.83814
5.10725
5.36112
5.62971
5.80022
6.06286
5.89702
6.222
4.95034
5.48148
1.38319
0.145699
0.146884
0.142112
0.154503
0.166779
0.176374
0.186521
0.197377
0.208384
0.219593
0.231121
0.242967
0.255127
0.267617
0.280447
0.293626
0.30716
0.321056
0.33532
0.349959
0.364978
0.380382
0.39618
0.412377
0.428982
0.446005
0.463458
0.481355
0.499712
0.518553
0.537899
0.557782
0.578237
0.599306
0.621036
0.643483
0.666715
0.690804
0.715834
0.741902
0.769114
0.797587
0.827453
0.858857
0.891957
0.926924
0.963947
1.00323
1.04498
1.08944
1.13685
1.18749
1.24163
1.29957
1.36164
1.42817
1.49952
1.57606
1.65819
1.74633
1.84094
1.94247
2.05141
2.1683
2.29367
2.42809
2.57215
2.7265
2.89174
3.06853
3.25752
3.45931
3.6745
3.90359
4.14682
4.4044
4.67567
4.96043
5.25457
5.55993
5.85661
6.16873
6.39742
6.70746
6.62321
6.99295
5.80568
6.40108
1.87689
0.1467
0.149417
0.143842
0.15465
0.166382
0.175537
0.185091
0.195447
0.20605
0.21688
0.228054
0.239582
0.251455
0.263683
0.27628
0.289254
0.302613
0.316366
0.330522
0.345088
0.360076
0.375494
0.391354
0.407667
0.424448
0.441711
0.459475
0.477761
0.496591
0.515996
0.536007
0.556661
0.577999
0.600075
0.622945
0.64667
0.671326
0.696995
0.723769
0.751752
0.781057
0.811812
0.844154
0.878236
0.914223
0.952296
0.99265
1.03549
1.08105
1.12957
1.18131
1.23654
1.29555
1.35868
1.42623
1.49857
1.57608
1.65915
1.7482
1.84369
1.94609
2.0559
2.17364
2.29991
2.43529
2.5804
2.73592
2.90255
3.08102
3.27209
3.47654
3.69514
3.92863
4.17774
4.44301
4.72488
5.02314
5.33785
5.66583
6.00849
6.34911
6.70689
6.99598
7.35687
7.36001
7.77579
6.69267
7.34342
2.92592
0.147192
0.15125
0.145255
0.154574
0.165682
0.174405
0.183386
0.193229
0.203411
0.213855
0.224667
0.235867
0.247442
0.259402
0.271757
0.284519
0.297696
0.311299
0.325338
0.339826
0.354774
0.370197
0.38611
0.402528
0.419472
0.43696
0.455019
0.473673
0.492954
0.512898
0.533542
0.554931
0.577115
0.600152
0.624107
0.649053
0.675068
0.702245
0.730682
0.76049
0.791792
0.824722
0.859424
0.896061
0.934804
0.975842
1.01938
1.06563
1.11483
1.16723
1.22311
1.28274
1.34644
1.41453
1.48736
1.5653
1.64875
1.73811
1.83386
1.93645
2.04639
2.16423
2.29054
2.42592
2.57105
2.7266
2.89332
3.072
3.26346
3.46857
3.68825
3.92343
4.17507
4.44408
4.7313
5.03748
5.36284
5.70778
6.07007
6.45089
6.8365
7.24203
7.59375
8.00979
8.10635
8.57265
7.60931
8.32068
4.07919
0.147139
0.152318
0.146225
0.154184
0.164612
0.172914
0.181351
0.190677
0.200431
0.210483
0.220927
0.231791
0.243062
0.254743
0.26685
0.27939
0.292376
0.305819
0.319732
0.334129
0.349027
0.364441
0.380391
0.396899
0.413987
0.431681
0.45001
0.469009
0.488711
0.509158
0.530397
0.552478
0.575461
0.599407
0.624389
0.650486
0.677787
0.706389
0.7364
0.767936
0.801128
0.836117
0.873057
0.912114
0.95347
0.99732
1.04388
1.09336
1.14602
1.20212
1.26194
1.32576
1.39392
1.46675
1.54462
1.62791
1.71703
1.81244
1.91459
2.024
2.14119
2.26675
2.40129
2.54547
2.69999
2.86563
3.04318
3.23352
3.43757
3.65632
3.89084
4.14223
4.4116
4.70013
5.00895
5.33913
5.69136
6.06646
6.46311
6.88256
7.31384
7.76898
8.18539
8.66163
8.85789
9.38461
8.56402
9.32922
4.89928
0.146534
0.152595
0.146663
0.153405
0.163122
0.171009
0.178934
0.187751
0.197073
0.206732
0.216806
0.227327
0.238286
0.249683
0.261531
0.273841
0.286625
0.299896
0.313671
0.327964
0.342795
0.358185
0.374155
0.390732
0.407941
0.425816
0.444389
0.463698
0.483787
0.5047
0.526491
0.549217
0.572943
0.597738
0.623681
0.650859
0.679366
0.709307
0.740795
0.773958
0.808929
0.845858
0.884906
0.926247
0.970068
1.01657
1.06598
1.11853
1.17447
1.23406
1.29761
1.36541
1.43781
1.51515
1.59781
1.68619
1.78074
1.8819
1.99018
2.1061
2.23023
2.36318
2.50562
2.65825
2.82182
2.99715
3.18514
3.38674
3.60297
3.83493
4.08384
4.35097
4.63763
4.94523
5.2752
5.62897
6.00771
6.41269
6.84354
7.30177
7.77902
8.28503
8.76752
9.30773
9.60865
10.2032
9.55216
10.3626
5.76082
0.145379
0.152073
0.146504
0.15218
0.161168
0.168646
0.176094
0.184417
0.193306
0.202574
0.212278
0.222453
0.233093
0.244198
0.255779
0.267849
0.28042
0.293508
0.307128
0.321303
0.336051
0.351397
0.367367
0.383989
0.401295
0.419322
0.438108
0.457695
0.478133
0.499469
0.521767
0.545087
0.569499
0.595081
0.621918
0.650102
0.679735
0.710927
0.7438
0.778486
0.815126
0.853878
0.894908
0.938398
0.984543
1.03356
1.08566
1.1411
1.20014
1.26305
1.33014
1.40173
1.47815
1.55978
1.64701
1.74027
1.83999
1.94666
2.06081
2.18299
2.31379
2.45388
2.60393
2.7647
2.93702
3.12176
3.31989
3.53243
3.76053
4.00539
4.26836
4.55089
4.85451
5.18087
5.53169
5.90877
6.31377
6.74846
7.21338
7.71047
8.23382
8.79141
9.3406
9.94681
10.3551
11.0188
10.5511
11.4054
7.35168
0.143677
0.150759
0.145701
0.15046
0.158719
0.165793
0.172795
0.180641
0.189101
0.19798
0.207313
0.21714
0.227456
0.23826
0.249565
0.261382
0.273727
0.286616
0.300067
0.314104
0.328748
0.344027
0.35997
0.376611
0.393984
0.412129
0.43109
0.450914
0.471654
0.493367
0.516117
0.539972
0.565007
0.591307
0.618961
0.648069
0.678738
0.711086
0.745239
0.781336
0.819527
0.859973
0.902848
0.948343
0.996657
1.04801
1.10264
1.16079
1.22274
1.28877
1.35919
1.43433
1.51456
1.60024
1.69179
1.78965
1.89427
2.00617
2.12589
2.25402
2.39117
2.53803
2.69535
2.86391
3.04459
3.23833
3.44616
3.6692
3.9087
4.16597
4.4425
4.73991
5.05994
5.40448
5.77557
6.17538
6.60607
7.06996
7.56851
8.10424
8.67359
9.28354
9.90025
10.5761
11.0957
11.8389
11.5699
12.4841
8.66552
0.141433
0.14867
0.144224
0.148209
0.15575
0.162421
0.169008
0.176396
0.184434
0.192926
0.20189
0.211364
0.221351
0.231847
0.242864
0.254416
0.26652
0.279192
0.292455
0.306331
0.320848
0.336035
0.351924
0.368551
0.385955
0.404182
0.423278
0.443294
0.464288
0.48632
0.509462
0.533788
0.559378
0.586319
0.614709
0.644653
0.676262
0.709662
0.744984
0.782374
0.821987
0.863991
0.908567
0.95591
1.00623
1.05975
1.11672
1.17739
1.24204
1.31097
1.38449
1.46296
1.54673
1.6362
1.73179
1.83395
1.94317
2.05997
2.18492
2.31863
2.46176
2.615
2.77916
2.95506
3.14362
3.34586
3.56285
3.79583
4.0461
4.31513
4.60452
4.91606
5.25168
5.61354
6.00398
6.42554
6.88088
7.3729
7.90397
8.47733
9.09163
9.75353
10.4372
11.1847
11.817
12.6487
12.5947
13.5819
9.86572
0.138654
0.145829
0.142053
0.1454
0.152243
0.158513
0.16471
0.171662
0.179285
0.187394
0.19599
0.205111
0.214761
0.224941
0.235659
0.246933
0.258779
0.271218
0.284271
0.297965
0.312328
0.327395
0.343198
0.359779
0.377178
0.395445
0.41463
0.434789
0.455985
0.478284
0.501758
0.526488
0.55256
0.580066
0.609108
0.639797
0.672251
0.706599
0.74298
0.781545
0.822455
0.865884
0.912019
0.961062
1.01323
1.06875
1.12788
1.19088
1.25804
1.32966
1.40608
1.48764
1.57472
1.66773
1.76711
1.87331
1.98685
2.10827
2.23815
2.37713
2.52589
2.68518
2.85581
3.03867
3.23472
3.44503
3.67075
3.91318
4.17375
4.45401
4.75571
5.08078
5.43137
5.80989
6.21895
6.66149
7.14066
7.65994
8.22259
8.83268
9.49093
10.2041
10.9537
11.7733
12.5182
13.441
13.6127
14.6732
11.4505
0.135344
0.142264
0.139181
0.142012
0.148187
0.154057
0.159885
0.166422
0.173638
0.181367
0.189596
0.19836
0.207669
0.217522
0.22793
0.238912
0.250483
0.262668
0.275489
0.288975
0.303158
0.318072
0.333756
0.350253
0.367606
0.38587
0.405097
0.425347
0.446689
0.469193
0.492935
0.517997
0.544475
0.572463
0.602071
0.63341
0.666607
0.701796
0.739122
0.778739
0.820815
0.865531
0.913079
0.963667
1.01752
1.07487
1.13598
1.20112
1.27059
1.3447
1.42379
1.50822
1.59837
1.69468
1.79758
1.90755
2.02513
2.15086
2.28536
2.42928
2.58334
2.74831
2.92505
3.11447
3.31759
3.53554
3.76953
4.02093
4.29126
4.5822
4.89561
5.23358
5.59847
5.99289
6.41979
6.88246
7.38453
7.93008
8.52326
9.16898
9.86999
10.6335
11.4478
12.34
13.197
14.2156
14.6194
15.7616
13.1174
0.131504
0.138005
0.135606
0.138031
0.143573
0.149045
0.154522
0.160662
0.167481
0.174831
0.182694
0.191098
0.200057
0.209573
0.219659
0.23033
0.241608
0.253516
0.266079
0.27933
0.293301
0.308029
0.323555
0.339927
0.357191
0.375402
0.394618
0.414905
0.436332
0.458971
0.482908
0.508229
0.53503
0.563411
0.593486
0.625376
0.659208
0.695122
0.733267
0.773805
0.816908
0.862761
0.911564
0.963531
1.01889
1.07789
1.14078
1.20786
1.27941
1.35578
1.4373
1.52434
1.6173
1.71661
1.82274
1.93617
2.05745
2.18715
2.32589
2.47437
2.63332
2.80353
2.9859
3.18139
3.39106
3.61607
3.85772
4.11745
4.39684
4.69768
5.02196
5.37192
5.75009
6.15934
6.60287
7.08434
7.60787
8.17809
8.8
9.47947
10.2211
11.033
11.9095
12.8735
13.8402
14.9607
15.6014
16.8453
14.5849
0.127136
0.133085
0.131335
0.133448
0.138398
0.143475
0.148616
0.154377
0.160806
0.167781
0.175275
0.183317
0.191918
0.201087
0.210833
0.221177
0.232141
0.243748
0.256029
0.269014
0.28274
0.297246
0.312576
0.328779
0.345907
0.364016
0.383168
0.403431
0.424879
0.447589
0.471647
0.497145
0.524183
0.552869
0.583319
0.615655
0.650011
0.686534
0.725375
0.766702
0.810692
0.857536
0.907439
0.960619
1.01731
1.07777
1.14226
1.21106
1.2845
1.3629
1.44661
1.53602
1.63153
1.73358
1.84265
1.95925
2.08391
2.21725
2.35991
2.51258
2.67602
2.85108
3.03866
3.23976
3.45549
3.68705
3.9358
4.20325
4.49107
4.80112
5.13552
5.49666
5.88724
6.31032
6.76939
7.26845
7.81206
8.40542
9.05432
9.76557
10.5455
11.4034
12.339
13.3724
14.4441
15.6665
16.5417
17.8933
16.2375
0.122237
0.127535
0.12638
0.128261
0.132663
0.137351
0.142166
0.147562
0.15361
0.16021
0.167335
0.175008
0.183244
0.192051
0.201444
0.211443
0.22207
0.233353
0.245321
0.25801
0.271456
0.285702
0.300795
0.316784
0.333725
0.351679
0.370709
0.390888
0.412291
0.435
0.459103
0.484699
0.51189
0.540786
0.571509
0.604189
0.63896
0.675973
0.715386
0.75737
0.802109
0.849797
0.900644
0.954876
1.01273
1.07447
1.14036
1.2107
1.28582
1.36603
1.45171
1.54325
1.64107
1.7456
1.85735
1.97682
2.10459
2.24126
2.3875
2.54402
2.71162
2.89115
3.08355
3.28986
3.51121
3.74887
4.00424
4.27888
4.57455
4.89322
5.2371
5.6087
6.0109
6.44695
6.92061
7.4362
7.99869
8.61384
9.28821
10.0295
10.8456
11.7472
12.7388
13.8393
15.0111
16.3347
17.4376
18.9
17.9776
0.116808
0.121392
0.12076
0.122471
0.126373
0.130677
0.135174
0.140218
0.145891
0.152116
0.158869
0.166166
0.174026
0.182459
0.191481
0.201113
0.211379
0.222309
0.233934
0.246292
0.259421
0.273365
0.288176
0.303903
0.320604
0.338346
0.357192
0.377219
0.398505
0.421136
0.445204
0.470808
0.498059
0.527068
0.557958
0.590865
0.625931
0.663308
0.703158
0.745657
0.790992
0.839364
0.890986
0.946091
1.00492
1.06774
1.13483
1.20649
1.28304
1.36483
1.45223
1.54563
1.64546
1.75218
1.86629
1.98831
2.11882
2.25846
2.40789
2.56786
2.73917
2.9227
3.11942
3.33039
3.55679
3.79993
4.06125
4.34237
4.64512
4.97155
5.32396
5.705
6.11768
6.56544
7.05228
7.58282
8.1624
8.7973
9.49478
10.2634
11.1127
12.0545
13.0978
14.2613
15.5265
16.9512
18.2711
19.8612
19.4944
0.110845
0.114687
0.114497
0.116088
0.119535
0.123465
0.127649
0.132352
0.137655
0.143505
0.149879
0.156794
0.164266
0.172309
0.180941
0.190184
0.200065
0.210614
0.221864
0.233856
0.246628
0.260228
0.274709
0.290124
0.306533
0.324002
0.342603
0.36241
0.383507
0.405983
0.429932
0.455458
0.482673
0.511695
0.54265
0.575674
0.610914
0.648527
0.688679
0.731552
0.777335
0.826233
0.878467
0.93427
0.993892
1.0576
1.12569
1.19845
1.27622
1.35935
1.44822
1.54323
1.64481
1.75344
1.86961
1.99387
2.12681
2.26907
2.42134
2.58437
2.75899
2.94609
3.14668
3.36185
3.59278
3.84085
4.10753
4.3945
4.70363
5.03706
5.39719
5.78676
6.20892
6.66728
7.16605
7.71009
8.30514
8.95791
9.67628
10.4697
11.3489
12.3272
13.4173
14.6387
15.9883
17.5082
19.0263
20.7465
21.0451
0.104348
0.107456
0.107621
0.109123
0.112163
0.11573
0.119603
0.123971
0.128908
0.134381
0.140372
0.146893
0.153964
0.161601
0.169824
0.178655
0.188123
0.198261
0.209103
0.22069
0.233065
0.246277
0.26038
0.27543
0.291489
0.308626
0.326915
0.346434
0.367267
0.389508
0.413255
0.438613
0.465697
0.494628
0.525538
0.558564
0.593858
0.631581
0.671901
0.715006
0.761088
0.810357
0.863038
0.919368
0.979602
1.04401
1.1129
1.18656
1.26533
1.34958
1.43968
1.53605
1.63913
1.7494
1.86736
1.99357
2.12863
2.27319
2.42796
2.59371
2.77127
2.96156
3.16561
3.38453
3.61955
3.87206
4.14358
4.43583
4.75075
5.09053
5.45765
5.85496
6.28572
6.7537
7.26329
7.8196
8.42867
9.09762
9.83493
10.6507
11.557
12.5683
13.7005
14.9746
16.4
18.0089
19.7036
21.5535
22.4858
0.0973174
0.0997333
0.100164
0.101596
0.104271
0.107488
0.111052
0.115089
0.119662
0.124753
0.130352
0.136469
0.143125
0.150337
0.158128
0.166521
0.175547
0.18524
0.195637
0.20678
0.218714
0.23149
0.245163
0.259793
0.275442
0.292183
0.31009
0.329245
0.349735
0.371656
0.395108
0.4202
0.447049
0.475781
0.506529
0.539435
0.57465
0.612345
0.652689
0.695871
0.742089
0.791556
0.844501
0.901167
0.961813
1.02672
1.09617
1.1705
1.25003
1.33514
1.4262
1.52365
1.62792
1.7395
1.85891
1.98671
2.12352
2.26998
2.42683
2.59483
2.77486
2.96783
3.17479
3.39687
3.63534
3.89159
4.16721
4.46393
4.78376
5.12891
5.50195
5.90582
6.34386
6.81998
7.3387
7.90538
8.52629
9.20892
9.96221
10.797
11.7262
12.7656
13.9337
15.2534
16.7439
18.4335
20.281
22.2643
23.6737
0.0897606
0.0915532
0.092164
0.0935311
0.095881
0.0987612
0.102017
0.105724
0.109932
0.114637
0.119834
0.125534
0.131758
0.138526
0.145861
0.15379
0.162345
0.17156
0.181475
0.192134
0.203583
0.215875
0.229065
0.243217
0.258397
0.274675
0.292131
0.31085
0.330918
0.352434
0.375502
0.400233
0.426748
0.455172
0.485648
0.518314
0.553328
0.590861
0.631086
0.674198
0.720398
0.769903
0.822945
0.879768
0.940639
1.00584
1.07566
1.15044
1.23051
1.31624
1.40803
1.50629
1.61149
1.72412
1.84469
1.97379
2.11203
2.26007
2.41865
2.58855
2.77066
2.96591
3.17536
3.40016
3.64161
3.90111
4.18028
4.48091
4.805
5.15486
5.53309
5.94269
6.38711
6.87036
7.39711
7.97286
8.60414
9.29871
10.066
10.9172
11.8662
12.93
14.1288
15.4876
17.0329
18.7923
20.7642
22.8695
24.7317
0.0816883
0.0829505
0.0836615
0.0849578
0.0870166
0.0895745
0.092521
0.0958956
0.0997365
0.104048
0.108832
0.1141
0.119874
0.126177
0.133032
0.140468
0.148519
0.157221
0.166616
0.176746
0.187664
0.199421
0.212075
0.225692
0.240337
0.256087
0.27302
0.291222
0.310786
0.331811
0.354403
0.378675
0.404752
0.43276
0.46284
0.495143
0.529827
0.567061
0.607028
0.64992
0.695944
0.745321
0.798285
0.855086
0.915992
0.981287
1.05128
1.12629
1.20667
1.2928
1.38506
1.48389
1.58976
1.70315
1.8246
1.95469
2.09404
2.24333
2.4033
2.57475
2.75856
2.95569
3.16721
3.3943
3.63824
3.90049
4.18267
4.48661
4.81435
5.16822
5.55088
5.96539
6.41528
6.90461
7.43819
8.02165
8.66168
9.36631
10.1452
11.0101
11.9754
13.0589
14.2825
15.6728
17.261
19.0767
21.1427
23.3523
25.5157
0.0731212
0.0739613
0.074702
0.0759122
0.077707
0.0799562
0.0825908
0.0856284
0.0890963
0.0930052
0.0973622
0.102182
0.107486
0.113299
0.119647
0.12656
0.134073
0.142225
0.151057
0.160615
0.170951
0.182119
0.19418
0.207198
0.221244
0.236393
0.252726
0.270332
0.289304
0.309744
0.331758
0.355465
0.380989
0.408463
0.438025
0.469831
0.50404
0.540827
0.580374
0.622879
0.66855
0.717611
0.770301
0.826871
0.887593
0.952757
1.02267
1.09766
1.17808
1.26431
1.35675
1.45584
1.56203
1.67583
1.79778
1.92846
2.0685
2.21859
2.37946
2.55193
2.73689
2.9353
3.14825
3.37691
3.62259
3.88676
4.17106
4.47731
4.8076
5.16429
5.55005
5.96797
6.42164
6.91515
7.45339
8.04207
8.688
9.39933
10.1859
11.0598
12.0358
13.1322
14.3717
15.7824
17.3986
19.2528
21.3821
23.6788
25.9998
0.0640886
0.0646224
0.065334
0.0664363
0.067987
0.0699393
0.0722587
0.0749521
0.0780392
0.0815343
0.0854499
0.0898032
0.0946162
0.0999148
0.105728
0.112087
0.119028
0.126591
0.134819
0.14376
0.153465
0.163993
0.175403
0.187762
0.201141
0.215619
0.231278
0.248208
0.266504
0.286269
0.307613
0.330653
0.35552
0.382344
0.411273
0.442456
0.476062
0.512264
0.551248
0.593214
0.638376
0.686957
0.7392
0.795361
0.855714
0.920552
0.990185
1.06495
1.14519
1.2313
1.32369
1.42278
1.52905
1.643
1.76518
1.89617
2.03662
2.1872
2.34866
2.52183
2.7076
2.90695
3.12096
3.35081
3.59784
3.86352
4.14949
4.4576
4.78994
5.14891
5.53719
5.9579
6.41465
6.9116
7.45367
8.04663
8.69735
9.41409
10.2068
11.0878
12.072
13.178
14.4292
15.854
17.4883
19.3665
21.5301
23.8817
26.2177
0.054633
0.0549712
0.0556073
0.0565759
0.0578947
0.0595583
0.0615573
0.0638965
0.0665917
0.0696594
0.0731165
0.0769823
0.0812806
0.0860387
0.0912867
0.0970583
0.103391
0.110325
0.117905
0.126181
0.135205
0.145036
0.155736
0.167373
0.180019
0.193753
0.208659
0.224828
0.242359
0.261356
0.28193
0.3042
0.328296
0.354355
0.382521
0.412954
0.445817
0.48129
0.519558
0.560828
0.605312
0.65324
0.704855
0.760416
0.820202
0.884506
0.953643
1.02795
1.10779
1.19354
1.28561
1.38445
1.49053
1.60435
1.72647
1.85747
1.99799
2.14874
2.31045
2.48397
2.67017
2.87005
3.0847
3.31532
3.56323
3.82992
4.11704
4.42645
4.76026
5.12086
5.51096
5.9337
6.39269
6.89212
7.43693
8.03291
8.68698
9.40743
10.2043
11.0898
12.079
13.1905
14.4477
15.8792
17.5201
19.4052
21.5713
23.9231
26.2209
0.0448125
0.0450469
0.0455739
0.0463833
0.047474
0.0488527
0.0505239
0.0524964
0.0547858
0.0574106
0.0603898
0.0637457
0.0675038
0.0716927
0.0763442
0.0814935
0.0871788
0.0934421
0.100329
0.107891
0.116181
0.125257
0.135185
0.146031
0.157871
0.170784
0.184856
0.200178
0.216851
0.234978
0.254675
0.276063
0.299271
0.324435
0.351708
0.381245
0.413217
0.4478
0.485188
0.525584
0.569205
0.616282
0.667061
0.721804
0.780791
0.844319
0.912706
0.986289
1.06543
1.15052
1.24196
1.34021
1.44574
1.55905
1.6807
1.81128
1.95144
2.10186
2.26331
2.4366
2.62265
2.82242
3.03702
3.26765
3.51562
3.78243
4.06971
4.37935
4.71344
5.07434
5.46478
5.88789
6.34726
6.84704
7.39217
7.98841
8.64262
9.36302
10.1595
11.0443
12.0321
13.1413
14.3946
15.82
17.4504
19.3188
21.4507
23.7506
25.988
0.0347003
0.034889
0.0352849
0.035915
0.0367749
0.0378658
0.039199
0.0407907
0.0426584
0.0448216
0.047302
0.0501242
0.0533157
0.0569061
0.0609288
0.0654201
0.0704194
0.0759702
0.0821192
0.0889168
0.0964184
0.104684
0.113778
0.12377
0.134734
0.146751
0.159909
0.174301
0.190025
0.207189
0.225908
0.246305
0.26851
0.292666
0.318919
0.34743
0.37837
0.411921
0.448274
0.487637
0.530228
0.57628
0.626043
0.679779
0.737772
0.80032
0.867744
0.940384
1.0186
1.10279
1.19337
1.29077
1.39548
1.50801
1.62891
1.75878
1.89826
2.04805
2.2089
2.38164
2.56717
2.76647
2.98063
3.21085
3.45846
3.72493
4.01191
4.32124
4.65504
5.01565
5.40579
5.82853
6.28746
6.78672
7.33116
7.92648
8.57945
9.29816
10.0923
10.9738
11.9571
13.0599
14.3037
15.7151
17.323
19.1578
21.2235
23.433
25.4467
0.0243793
0.0245363
0.024789
0.0252274
0.025848
0.0266409
0.0276224
0.0288164
0.0302434
0.0319242
0.0338824
0.0361448
0.0387405
0.041701
0.0450605
0.0488567
0.0531296
0.0579235
0.063286
0.069269
0.0759282
0.083323
0.0915193
0.100588
0.110604
0.121648
0.133809
0.147179
0.161861
0.177963
0.195598
0.214893
0.235978
0.258996
0.284098
0.311444
0.341206
0.37357
0.408729
0.446889
0.488273
0.533116
0.581669
0.634197
0.690984
0.752333
0.818565
0.890024
0.967075
1.05011
1.13955
1.23583
1.33944
1.45089
1.57073
1.69957
1.83804
1.98684
2.14674
2.31854
2.50316
2.70157
2.91486
3.14423
3.39099
3.65661
3.94273
4.25121
4.5841
4.94376
5.33288
5.75449
6.21213
6.70992
7.25262
7.84583
8.49618
9.2116
10.0016
10.8775
11.8533
12.9459
14.1753
15.5663
17.1415
18.9297
20.9024
23.0055
24.6858
0.0139363
0.0140308
0.014139
0.0143818
0.0147488
0.0152262
0.0158384
0.0166159
0.0175813
0.018756
0.0201663
0.0218411
0.0238111
0.0261086
0.0287695
0.0318316
0.0353364
0.0393286
0.0438565
0.0489718
0.0547311
0.0611957
0.0684305
0.0765056
0.0854976
0.0954887
0.106567
0.118827
0.132369
0.147302
0.163745
0.18182
0.201661
0.223412
0.247224
0.273259
0.301689
0.332702
0.366492
0.403269
0.443255
0.486687
0.533819
0.584916
0.640266
0.70017
0.764953
0.834959
0.910556
0.992136
1.08012
1.17495
1.27711
1.38711
1.50551
1.63289
1.76992
1.91727
2.07571
2.24605
2.42919
2.6261
2.83787
3.06568
3.31083
3.57478
3.85915
4.16577
4.49668
4.85419
5.24095
5.65994
6.11466
6.6091
7.14791
7.73656
8.38148
9.09034
9.87222
10.7381
11.701
12.7768
13.9834
15.3436
16.8721
18.5991
20.4512
22.4426
23.676
0.00345312
0.00341833
0.00339314
0.00344128
0.00353301
0.00367058
0.00389309
0.00423371
0.00471368
0.0053568
0.00619215
0.00725021
0.00856279
0.0101638
0.0120895
0.0143784
0.0170731
0.0202184
0.0238627
0.0280587
0.0328629
0.0383356
0.0445431
0.0515566
0.0594519
0.0683109
0.0782226
0.0892813
0.101589
0.115256
0.130396
0.147139
0.165616
0.185973
0.208361
0.232942
0.259895
0.289403
0.321663
0.356887
0.395298
0.437134
0.482649
0.532113
0.585813
0.644055
0.707161
0.775479
0.849376
0.929246
1.01551
1.10861
1.20903
1.31729
1.43393
1.55955
1.69479
1.84035
1.99697
2.16547
2.34674
2.54174
2.75155
2.97732
3.22037
3.48213
3.76419
4.06835
4.39661
4.75126
5.13488
5.5504
6.00121
6.4912
7.02488
7.60754
8.24537
8.94569
9.71713
10.57
11.5164
12.5709
13.7487
15.0709
16.5416
18.1962
19.901
21.7707
22.4558
-0.00699726
-0.00725305
-0.00738736
-0.00753133
-0.00774446
-0.00797619
-0.00816612
-0.00828584
-0.00831714
-0.00823375
-0.00800296
-0.0075924
-0.00696953
-0.00610035
-0.0049475
-0.0034719
-0.00163061
0.000621167
0.0033319
0.00655473
0.010346
0.014766
0.0198812
0.0257616
0.0324842
0.0401303
0.048789
0.0585551
0.0695295
0.081823
0.095555
0.110848
0.127836
0.146665
0.167491
0.190476
0.215794
0.243633
0.274191
0.307682
0.344329
0.384373
0.428068
0.475685
0.527511
0.583855
0.645041
0.711417
0.783349
0.861232
0.945488
1.03656
1.13494
1.24113
1.35568
1.47918
1.61228
1.75566
1.91006
2.0763
2.25526
2.44788
2.65524
2.87848
3.11889
3.37787
3.657
3.95804
4.28296
4.63397
5.01361
5.42472
5.8706
6.35501
6.88229
7.45753
8.08662
8.77648
9.53521
10.3724
11.2989
12.3281
13.4719
14.7497
16.1525
17.7252
19.2589
20.9994
21.1793
-0.01735
-0.0179319
-0.0181368
-0.018472
-0.0190277
-0.0196623
-0.0202898
-0.0208954
-0.0214667
-0.0219726
-0.0223764
-0.0226454
-0.0227466
-0.0226448
-0.022303
-0.0216807
-0.0207365
-0.0194251
-0.017697
-0.0155004
-0.0127799
-0.00947437
-0.00551827
-0.00084133
0.00463218
0.010984
0.0183026
0.026683
0.0362263
0.0470433
0.0592495
0.0729723
0.0883476
0.105519
0.124639
0.145873
0.1694
0.195405
0.224087
0.25566
0.290348
0.328395
0.370055
0.415599
0.465317
0.519515
0.578522
0.642683
0.712367
0.78797
0.86991
0.958633
1.05462
1.15838
1.27046
1.39144
1.52198
1.66273
1.81445
1.97793
2.15405
2.34374
2.54805
2.76811
3.00518
3.26064
3.53603
3.83307
4.15367
4.50001
4.87449
5.27992
5.71944
6.19666
6.71574
7.2815
7.89949
8.57621
9.3191
10.137
11.0393
12.0382
13.1415
14.3682
15.6932
17.1779
18.5226
20.1434
19.7002
-0.027548
-0.0285633
-0.0287874
-0.0293185
-0.0302626
-0.0313371
-0.0324283
-0.0335476
-0.0346897
-0.0358161
-0.0368864
-0.0378675
-0.038727
-0.0394296
-0.0399371
-0.0402093
-0.0402055
-0.0398806
-0.0391847
-0.0380687
-0.036476
-0.0343457
-0.0316142
-0.0282113
-0.024062
-0.0190854
-0.0131922
-0.00629035
0.0017235
0.0109576
0.0215304
0.0335664
0.0472011
0.0625779
0.0798555
0.0991961
0.120774
0.144781
0.171414
0.200889
0.233432
0.269285
0.308703
0.351961
0.399346
0.451168
0.507753
0.569447
0.636623
0.709672
0.789012
0.875091
0.968382
1.0694
1.17868
1.29681
1.42442
1.56219
1.71084
1.87116
2.04401
2.23032
2.43111
2.6475
2.88071
3.13209
3.40315
3.69554
4.01114
4.35204
4.72056
5.11941
5.55158
6.02051
6.53014
7.08501
7.6903
8.35201
9.0769
9.87291
10.7481
11.7129
12.7714
13.9421
15.1818
16.5745
17.7166
19.2205
18.1446
-0.037541
-0.0390903
-0.0392705
-0.0400102
-0.0413968
-0.0429494
-0.0445322
-0.0461956
-0.0479411
-0.0497208
-0.0514903
-0.0532181
-0.054871
-0.0564145
-0.0578099
-0.0590183
-0.0599986
-0.0607065
-0.0610944
-0.0611112
-0.0607038
-0.0598108
-0.0583698
-0.0563129
-0.0535643
-0.0500438
-0.0456652
-0.0403345
-0.0339502
-0.0264056
-0.0175817
-0.00735338
0.00441366
0.0178639
0.0331521
0.0504432
0.0699137
0.0917536
0.116162
0.143352
0.173554
0.207008
0.243971
0.284718
0.329537
0.378738
0.432647
0.491612
0.556002
0.626211
0.702655
0.785778
0.876055
0.97399
1.08013
1.19504
1.31936
1.45374
1.59891
1.75564
1.92478
2.10724
2.30402
2.5162
2.745
2.99172
3.25781
3.54489
3.85477
4.18945
4.55118
4.9425
5.36629
5.82581
6.32474
6.8673
7.45829
8.10316
8.80793
9.5796
10.4246
11.3522
12.3613
13.4717
14.6191
15.9152
16.8442
18.2311
16.7209
-0.047285
-0.0494519
-0.0495162
-0.0504882
-0.0523774
-0.0544471
-0.0565505
-0.0587907
-0.0611747
-0.0636411
-0.0661433
-0.0686511
-0.0711333
-0.0735548
-0.0758767
-0.0780621
-0.0800692
-0.0818553
-0.0833756
-0.0845788
-0.0854126
-0.0858177
-0.0857343
-0.0850928
-0.0838202
-0.0818376
-0.0790597
-0.0753954
-0.0707407
-0.064992
-0.0580298
-0.0497303
-0.0399613