/*--------------------------------*- C++ -*----------------------------------*\
  =========                 |
  \\      /  F ield         | OpenFOAM: The Open Source CFD Toolbox
   \\    /   O peration     | Website:  https://openfoam.org
    \\  /    A nd           | Version:  11
     \\/     M anipulation  |
\*---------------------------------------------------------------------------*/
FoamFile
{
    format      ascii;
    class       volScalarField;
    location    "250";
    object      p;
}
// * * * * * * * * * * * * * * * * * * * * * * * * * * * * * * * * * * * * * //

dimensions      [0 2 -2 0 0 0 0];

internalField   nonuniform List<scalar> 
31595
(
12.4746
8.452
9.30829
9.70942
10.306
10.6111
11.1923
11.6805
12.2408
12.7977
13.3942
14.0056
14.6463
15.3105
16.0026
16.722
17.4706
18.2491
19.0588
19.9006
20.7757
21.6852
22.6302
23.6117
24.631
25.6889
26.7867
27.9255
29.1065
30.3306
31.5992
32.9135
34.2748
35.6844
37.1438
38.6545
40.2182
41.8367
43.5118
45.2457
47.0406
48.8991
50.8236
52.8172
54.8829
57.024
59.2442
61.5474
63.9376
66.4195
68.9976
71.6773
74.4638
77.3631
80.3814
83.5253
86.8019
90.2189
93.7845
97.5072
101.397
105.462
109.716
114.168
118.831
123.72
128.848
134.23
139.885
145.829
152.084
158.669
165.61
172.929
180.652
188.81
197.429
206.54
216.172
226.352
237.099
248.422
260.308
272.702
285.496
298.402
311.143
322.353
332.451
10.3736
9.06161
8.79321
9.59825
10.1192
10.5195
11.0311
11.5528
12.0888
12.6444
13.2252
13.8276
14.4543
15.1059
15.7838
16.4889
17.2224
17.9852
18.7785
19.6035
20.4612
21.3527
22.279
23.2413
24.2407
25.2784
26.3554
27.4728
28.6319
29.8339
31.0801
32.3717
33.71
35.0965
36.5328
38.0204
39.5612
41.1569
42.8095
44.5211
46.2941
48.1311
50.0348
52.008
54.0539
56.176
58.3778
60.6633
63.0367
65.5025
68.0656
70.7311
73.5045
76.3917
79.399
82.5332
85.8015
89.2116
92.7717
96.4908
100.378
104.445
108.701
113.159
117.831
122.731
127.875
133.278
138.958
144.933
151.226
157.857
164.852
172.236
180.037
188.286
197.013
206.251
216.033
226.388
237.339
248.901
261.061
273.768
286.905
300.179
313.248
324.73
334.66
9.36028
9.01372
8.61483
9.39257
9.96193
10.3853
10.8749
11.3967
11.9235
12.469
13.0371
13.6271
14.24
14.8774
15.5403
16.2299
16.9472
17.6933
18.4693
19.2763
20.1154
20.9877
21.8943
22.8362
23.8147
24.8307
25.8856
26.9805
28.1166
29.295
30.5172
31.7845
33.0983
34.4601
35.8715
37.3341
38.8498
40.4203
42.0479
43.7348
45.4833
47.2959
49.1756
51.1251
53.1478
55.247
57.4265
59.6901
62.0423
64.4874
67.0303
69.6763
72.4309
75.3002
78.2903
81.4082
84.6612
88.0571
91.6042
95.3117
99.1891
103.247
107.496
111.95
116.62
121.522
126.669
132.081
137.773
143.767
150.083
156.746
163.78
171.213
179.075
187.397
196.214
205.561
215.473
225.984
237.123
248.907
261.328
274.339
287.817
301.469
314.881
326.691
336.442
8.94789
8.87818
8.50407
9.20481
9.80246
10.233
10.7087
11.2209
11.7388
12.2718
12.8264
13.4024
14.0005
14.6224
15.2692
15.9421
16.6421
17.3704
18.1279
18.9159
19.7353
20.5872
21.4729
22.3933
23.3496
24.3429
25.3745
26.4455
27.5572
28.7108
29.9077
31.1494
32.4371
33.7725
35.1573
36.5932
38.082
39.6256
41.2262
42.886
44.6076
46.3934
48.2464
50.1695
52.1658
54.2391
56.3929
58.6312
60.9583
63.3787
65.8974
68.5196
71.251
74.0974
77.0653
80.1615
83.3935
86.7693
90.2972
93.9863
97.8467
101.889
106.124
110.564
115.224
120.117
125.26
130.668
136.362
142.362
148.689
155.369
162.427
169.892
177.797
186.175
195.062
204.497
214.518
225.164
236.467
248.45
261.11
274.407
288.213
302.245
316.009
328.183
337.762
8.70203
8.77541
8.41327
9.04239
9.64211
10.073
10.5324
11.0306
11.5367
12.0557
12.5951
13.1557
13.7378
14.343
14.9726
15.6277
16.3094
17.0187
17.7567
18.5245
19.3231
20.1536
21.0172
21.915
22.848
23.8175
24.8245
25.8705
26.9565
28.0839
29.2542
30.4687
31.7289
33.0365
34.393
35.8003
37.2603
38.775
40.3465
41.9771
43.6694
45.426
47.2496
49.1435
51.1107
53.1548
55.2796
57.4891
59.7875
62.1795
64.67
67.2641
69.9677
72.7867
75.7275
78.7971
82.003
85.353
88.8558
92.5207
96.3575
100.377
104.591
109.011
113.653
118.53
123.658
129.055
134.741
140.736
147.064
153.75
160.821
168.308
176.243
184.663
193.607
203.115
213.23
223.994
235.445
247.611
260.496
274.067
288.191
302.598
316.719
329.289
338.605
8.5399
8.70439
8.33826
8.89529
9.48126
9.90544
10.3456
10.8263
11.3177
11.8208
12.3436
12.8872
13.452
14.0394
14.6506
15.2868
15.949
16.6383
17.3556
18.1022
18.8789
19.687
20.5274
21.4014
22.3099
23.2542
24.2355
25.2551
26.3141
27.4141
28.5562
29.7421
30.9733
32.2513
33.5778
34.9548
36.3841
37.8678
39.4081
41.0072
42.6678
44.3925
46.1841
48.0458
49.9808
51.9926
54.0851
56.2621
58.5282
60.8877
63.3457
65.9076
68.5788
71.3654
74.2741
77.3117
80.4857
83.8041
87.2757
90.9096
94.7159
98.7057
102.891
107.283
111.898
116.749
121.854
127.229
132.896
138.876
145.192
151.87
158.94
166.433
174.382
182.827
191.807
201.368
211.555
222.415
233.99
246.315
259.4
273.219
287.641
302.407
316.889
329.898
338.792
8.40252
8.63832
8.27006
8.75492
9.31694
9.72935
10.148
10.6081
11.0821
11.5677
12.0722
12.5974
13.1436
13.712
14.3038
14.92
15.5616
16.2298
16.9255
17.6497
18.4035
19.1879
20.004
20.8529
21.7358
22.6537
23.608
24.5998
25.6305
26.7014
27.814
28.9697
30.17
31.4167
32.7115
34.0561
35.4526
36.9031
38.4097
39.9749
41.6011
43.2911
45.0478
46.8742
48.7736
50.7496
52.806
54.9467
57.1761
59.4987
61.9196
64.4442
67.0778
69.8268
72.6974
75.6969
78.8325
82.1124
85.5453
89.1406
92.9083
96.8595
101.006
105.361
109.938
114.752
119.82
125.162
130.796
136.744
143.031
149.685
156.733
164.21
172.151
180.595
189.585
199.169
209.396
220.315
231.975
244.418
257.658
271.682
286.359
301.447
316.272
329.621
338.35
8.27034
8.56279
8.19986
8.61458
9.14553
9.54255
9.93819
10.3754
10.8299
11.2963
11.7811
12.2867
12.8132
13.3614
13.9326
14.5278
15.1479
15.7939
16.4668
17.1676
17.8973
18.6569
19.4475
20.2702
21.1262
22.0165
22.9424
23.9052
24.9061
25.9466
27.028
28.1518
29.3197
30.5333
31.7943
33.1046
34.4662
35.8813
37.3519
38.8806
40.4699
42.1224
43.8411
45.629
47.4896
49.4262
51.4427
53.5431
55.7318
58.0132
60.3924
62.8746
65.4654
68.171
70.9979
73.953
77.0437
80.2783
83.6651
87.2139
90.9346
94.8383
98.9369
103.244
107.772
112.538
117.558
122.851
128.437
134.338
140.58
147.19
154.197
161.636
169.543
177.96
186.931
196.505
206.734
217.673
229.375
241.886
255.229
269.4
284.272
299.62
314.717
328.207
337.188
8.13108
8.46685
8.11872
8.46828
8.9635
9.34261
9.71463
10.1275
10.5606
11.0066
11.4707
11.9555
12.4611
12.9882
13.5378
14.111
14.7085
15.3313
15.9805
16.6568
17.3614
18.0952
18.8593
19.6547
20.4826
21.3441
22.2404
23.1729
24.1426
25.1512
26.2
27.2905
28.4242
29.603
30.8285
32.1027
33.4274
34.8049
36.2374
37.7273
39.2771
40.8896
42.5676
44.3143
46.133
48.0271
50.0004
52.057
54.2011
56.4375
58.7708
61.2065
63.7501
66.4077
69.1858
72.0913
75.1315
78.3148
81.6497
85.1456
88.8126
92.6617
96.7048
100.955
105.427
110.135
115.097
120.331
125.858
131.701
137.884
144.436
151.387
158.771
166.627
174.995
183.924
193.463
203.667
214.595
226.301
238.841
252.24
266.503
281.501
297.022
312.242
325.929
334.77
7.9792
8.34516
8.02022
8.3112
8.76787
9.12728
9.47565
9.86333
10.2739
10.6983
11.1407
11.6038
12.0876
12.5926
13.1197
13.6699
14.2439
14.8427
15.4671
16.118
16.7965
17.5034
18.2398
19.0068
19.8054
20.6369
21.5023
22.403
23.3403
24.3156
25.3302
26.3857
27.4837
28.6259
29.814
31.05
32.3359
33.6737
35.0658
36.5145
38.0223
39.5921
41.2266
42.929
44.7026
46.5508
48.4775
50.4866
52.5824
54.7695
57.0527
59.4372
61.9288
64.5333
67.2572
70.1075
73.0915
76.2172
79.4935
82.9293
86.5351
90.3217
94.301
98.4859
102.891
107.531
112.424
117.588
123.043
128.813
134.923
141.4
148.277
155.587
163.369
171.666
180.526
190
200.146
211.024
222.694
235.212
248.612
262.905
277.956
293.559
308.764
322.733
330.836
7.81124
8.19471
7.89955
8.13936
8.55621
8.89467
9.21977
9.58197
9.96907
10.3712
10.7912
11.2317
11.6929
12.1749
12.6788
13.2051
13.7547
14.3285
14.9272
15.5517
16.2029
16.8819
17.5895
18.3269
19.0951
19.8952
20.7284
21.5961
22.4994
23.4397
24.4186
25.4374
26.4979
27.6017
28.7505
29.9463
31.191
32.4868
33.836
35.2408
36.7039
38.228
39.8159
41.4708
43.1959
44.9946
46.8707
48.8282
50.8713
53.0045
55.2327
57.561
59.995
62.5407
65.2042
67.9928
70.9135
73.9744
77.184
80.5516
84.0871
87.8016
91.7067
95.8154
100.142
104.701
109.511
114.589
119.956
125.635
131.651
138.033
144.811
152.02
159.699
167.891
176.644
186.012
196.053
206.827
218.399
230.828
244.149
258.382
273.385
288.968
304.147
318.214
325.272
7.62554
8.01449
7.75363
7.94978
8.3267
8.64335
8.94578
9.28269
9.64582
10.0251
10.4222
10.8395
11.2773
11.7357
12.2155
12.7172
13.2416
13.7894
14.3615
14.9586
15.5816
16.2316
16.9093
17.616
18.3524
19.12
19.9198
20.7529
21.6209
22.5248
23.4663
24.4469
25.468
26.5315
27.639
28.7925
29.994
31.2455
32.5492
33.9077
35.3234
36.7989
38.3373
39.9414
41.6145
43.3601
45.1819
47.0838
49.07
51.1448
53.3132
55.5803
57.9515
60.4326
63.0301
65.7505
68.6012
71.59
74.7254
78.0165
81.4733
85.1062
88.927
92.9486
97.1849
101.651
106.364
111.341
116.604
122.175
128.078
134.343
140.998
148.08
155.626
163.68
172.29
181.508
191.393
202.008
213.414
225.674
238.822
252.881
267.692
283.123
298.054
312.099
317.623
7.42126
7.80458
7.58053
7.74026
8.07804
8.37232
8.65283
8.96493
9.3039
9.66
10.0338
10.4275
10.8414
11.2756
11.7305
12.2069
12.7053
13.2265
13.771
14.3399
14.9339
15.5538
16.2007
16.8755
17.5793
18.3131
19.0782
19.8756
20.7069
21.573
22.4759
23.4166
24.3968
25.4183
26.4828
27.5922
28.7484
29.9536
31.2099
32.5198
33.8857
35.3102
36.7964
38.347
39.9654
41.655
43.4193
45.2624
47.1882
49.2012
51.3061
53.508
55.8123
58.2247
60.7513
63.399
66.1747
69.0864
72.1421
75.3508
78.7225
82.2677
85.9977
89.9249
94.0634
98.4281
103.035
107.903
113.051
118.502
124.281
130.415
136.933
143.871
151.266
159.161
167.603
176.644
186.341
196.756
207.948
219.98
232.878
246.665
261.162
276.297
290.574
304.479
307.26
7.19782
7.56579
7.37926
7.50926
7.80937
8.08098
8.3403
8.62825
8.94311
9.27583
9.62609
9.99584
10.3854
10.7948
11.2244
11.6747
12.1464
12.6401
13.1564
13.6961
14.26
14.849
15.4639
16.1058
16.7756
17.4745
18.2036
18.964
19.757
20.584
21.4464
22.3456
23.2831
24.2608
25.2803
26.3435
27.4523
28.6088
29.8153
31.0739
32.3873
33.758
35.1889
36.6829
38.2431
39.8731
41.5762
43.3563
45.2176
47.1643
49.201
51.3327
53.5647
55.9027
58.3527
60.9212
63.6153
66.4425
69.4109
72.5295
75.8076
79.2555
82.8847
86.7071
90.7362
94.987
99.4749
104.218
109.237
114.551
120.186
126.168
132.526
139.295
146.51
154.214
162.452
171.275
180.737
190.899
201.817
213.548
226.114
239.539
253.62
268.29
281.635
295.189
294.931
6.95501
7.29938
7.14957
7.25586
7.52023
7.76907
8.00791
8.27251
8.56347
8.87276
9.19939
9.54494
9.90981
10.294
10.6976
11.1214
11.5657
12.0311
12.5183
13.028
13.5609
14.1179
14.6999
15.3078
15.9425
16.6052
17.2971
18.0191
18.7725
19.5586
20.379
21.235
22.1282
23.0602
24.0327
25.0476
26.1068
27.2123
28.3664
29.5713
30.8294
32.1434
33.516
34.95
36.4488
38.0155
39.6535
41.3668
43.1592
45.035
46.9988
49.0552
51.2097
53.4675
55.8347
58.3177
60.9234
63.6589
66.5323
69.5522
72.7275
76.0689
79.5869
83.2933
87.2011
91.3247
95.6795
100.283
105.153
110.312
115.782
121.589
127.762
134.332
141.335
148.81
156.801
165.355
174.526
184.367
194.929
206.266
218.388
231.323
244.761
258.772
270.88
283.962
279.468
6.69281
7.00695
6.89178
6.97959
7.21053
7.43673
7.65575
7.89783
8.16528
8.4512
8.75417
9.07538
9.41528
9.77381
10.1511
10.5477
10.9639
11.4005
11.8579
12.3367
12.8378
13.362
13.9101
14.4829
15.0815
15.7069
16.3602
17.0424
17.7549
18.499
19.2759
20.0871
20.9343
21.8188
22.7426
23.7073
24.7148
25.7673
26.8668
28.0155
29.216
30.4706
31.7822
33.1536
34.5878
36.088
37.6577
39.3006
41.0205
42.8216
44.7083
46.6853
48.7577
50.9307
53.2103
55.6025
58.114
60.752
63.5241
66.4387
69.5044
72.7317
76.1303
79.7119
83.4894
87.4758
91.6866
96.1383
100.849
105.837
111.127
116.743
122.71
129.06
135.825
143.042
150.753
159
167.831
177.294
187.429
198.286
209.856
222.14
234.716
247.885
258.298
270.756
259.288
6.41115
6.69024
6.60664
6.68039
6.88044
7.08431
7.28411
7.50451
7.74889
8.0116
8.29091
8.58771
8.90242
9.23498
9.58553
9.95445
10.3421
10.7491
11.176
11.6233
12.0917
12.5822
13.0953
13.6321
14.1934
14.7804
15.3939
16.0351
16.7054
17.4059
18.1379
18.9027
19.7022
20.5375
21.4107
22.3232
23.2771
24.2743
25.3169
26.4072
27.5474
28.7401
29.9879
31.2936
32.6601
34.0907
35.5887
37.1577
38.8013
40.5237
42.3292
44.2223
46.2079
48.2914
50.4781
52.7741
55.1858
57.7202
60.3847
63.187
66.1362
69.2412
72.5124
75.9608
79.5983
83.4375
87.4934
91.7815
96.3186
101.124
106.218
111.624
117.367
123.476
129.98
136.913
144.313
152.217
160.665
169.7
179.354
189.659
200.558
212.053
223.591
235.716
243.862
255.435
235.606
6.11011
6.35111
6.29528
6.35855
6.53038
6.7124
6.89349
7.09301
7.31483
7.5545
7.81025
8.08257
8.37191
8.67824
9.00164
9.34243
9.70096
10.0778
10.4734
10.8883
11.3233
11.779
12.2563
12.7561
13.2791
13.8263
14.3989
14.9979
15.6245
16.2798
16.9652
17.6822
18.4321
19.2164
20.0369
20.8953
21.7933
22.733
23.7163
24.7455
25.8228
26.9506
28.1316
29.3684
30.664
32.0214
33.4439
34.9348
36.498
38.1373
39.8569
41.6611
43.5547
45.5428
47.6307
49.8242
52.1294
54.5529
57.102
59.784
62.6075
65.5813
68.7149
72.0187
75.5043
79.1838
83.071
87.1802
91.5277
96.131
101.009
106.184
111.678
117.517
123.729
130.344
137.393
144.909
152.926
161.476
170.572
180.22
190.322
200.903
211.182
222.039
227.295
237.787
208.715
5.78983
5.9915
5.95913
6.0147
6.16103
6.32185
6.48471
6.66408
6.86389
7.08079
7.31303
7.5609
7.82476
8.10458
8.40046
8.71269
9.04161
9.38766
9.75136
10.1332
10.534
10.9542
11.3947
11.8563
12.34
12.8465
13.377
13.9324
14.514
15.1229
15.7603
16.4277
17.1265
17.8581
18.6243
19.4265
20.2667
21.1467
22.0685
23.0342
24.0461
25.1065
26.2179
27.383
28.6046
29.8856
31.2292
32.6388
34.1178
35.6701
37.2995
39.0106
40.8076
42.6957
44.6797
46.7652
48.9581
51.2648
53.6922
56.247
58.9376
61.7723
64.7599
67.9102
71.234
74.7428
78.4495
82.3673
86.5108
90.8966
95.5418
100.466
105.689
111.235
117.124
123.386
130.045
137.13
144.662
152.657
161.104
170
179.199
188.738
197.531
206.961
208.686
218.098
174.82
5.45048
5.61333
5.5999
5.64975
5.77324
5.91367
6.05873
6.21862
6.39695
6.59132
6.80017
7.0236
7.26185
7.51498
7.78306
8.06635
8.36516
8.67991
9.01108
9.35922
9.7249
10.1088
10.5117
10.9343
11.3775
11.8422
12.3294
12.8401
13.3754
13.9365
14.5245
15.1409
15.787
16.4641
17.174
17.9184
18.6988
19.5171
20.3752
21.2753
22.2194
23.2099
24.2491
25.3398
26.4845
27.6861
28.9476
30.2724
31.6637
33.1253
34.6609
36.2748
37.9711
39.7546
41.63
43.6028
45.6783
47.8628
50.1626
52.5843
55.1357
57.8243
60.6586
63.6481
66.8023
70.132
73.6488
77.3649
81.2935
85.4498
89.8491
94.5076
99.4434
104.677
110.227
116.113
122.356
128.972
135.969
143.35
151.087
159.158
167.341
175.703
182.763
190.581
188.025
196.286
135.327
5.09245
5.21855
5.21948
5.26486
5.36806
5.48903
5.61668
5.75765
5.91498
6.0871
6.27267
6.47163
6.68417
6.91039
7.15034
7.40428
7.67251
7.95536
8.25339
8.56708
8.89694
9.24365
9.608
9.9906
10.3923
10.8141
11.2568
11.7215
12.2091
12.7209
13.2581
13.8217
14.4134
15.0345
15.6863
16.3706
17.089
17.8434
18.6355
19.4674
20.3411
21.2589
22.223
23.236
24.3005
25.4193
26.5951
27.8312
29.1308
30.4974
31.9346
33.4464
35.0369
36.7103
38.4714
40.3252
42.277
44.3323
46.4971
48.7779
51.1814
53.7152
56.3869
59.205
62.1785
65.3173
68.6316
72.1322
75.8311
79.7414
83.8767
88.2509
92.879
97.777
102.959
108.438
114.226
120.328
126.741
133.454
140.41
147.562
154.593
161.62
166.647
172.614
164.87
171.883
93.9717
4.7162
4.80907
4.81998
4.8615
4.94676
5.04928
5.15988
5.28243
5.41923
5.56935
5.73172
5.90623
6.09297
6.29206
6.50363
6.72784
6.96502
7.21553
7.47979
7.75837
8.0517
8.36047
8.68539
9.0271
9.38641
9.76419
10.1613
10.5788
11.0175
11.4788
11.9635
12.4731
13.0088
13.572
14.1641
14.7866
15.4411
16.1295
16.8534
17.6148
18.4157
19.2582
20.1447
21.0773
22.0587
23.0915
24.1784
25.3225
26.5268
27.7947
29.1295
30.5351
32.0152
33.574
35.2159
36.9456
38.7681
40.6884
42.7122
44.8453
47.0941
49.4654
51.966
54.6035
57.3862
60.3229
63.4227
66.6953
70.1508
73.8006
77.6557
81.7268
86.0255
90.5626
95.3464
100.385
105.682
111.234
117.023
123.019
129.132
135.295
141.077
146.681
149.45
153.534
139.789
145.947
42.933
4.32256
4.38683
4.40365
4.44134
4.51076
4.59592
4.68982
4.79431
4.91097
5.03932
5.1786
5.32861
5.48944
5.66123
5.84411
6.03825
6.24395
6.46158
6.69153
6.93434
7.19047
7.46053
7.74516
8.04509
8.36101
8.69377
9.04424
9.41333
9.80198
10.2113
10.6424
11.0964
11.5746
12.0782
12.6088
13.1677
13.7565
14.3769
15.0305
15.7193
16.4451
17.2099
18.0161
18.8657
19.7612
20.7051
21.7001
22.7489
23.8545
25.0202
26.2489
27.5444
28.9103
30.3504
31.8688
33.4697
35.1578
36.9381
38.8155
40.7953
42.8835
45.0859
47.4093
49.8599
52.4452
55.1726
58.05
61.0853
64.2871
67.6644
71.225
74.9769
78.9282
83.0854
87.4519
92.0284
96.8087
101.777
106.9
112.127
117.33
122.427
126.846
130.918
131.167
133.273
112.626
118.077
-13.2634
3.91259
3.95372
3.97289
4.0063
4.06165
4.13051
4.20804
4.29475
4.39159
4.49837
4.61457
4.74004
4.87483
5.01909
5.17297
5.33664
5.5104
5.69464
5.8897
6.09608
6.31424
6.5448
6.78835
7.04558
7.31714
7.60383
7.90649
8.226
8.56327
8.91932
9.29522
9.69209
10.1111
10.5536
11.0208
11.5141
12.035
12.5853
13.1663
13.78
14.4282
15.1127
15.8357
16.5993
17.4058
18.2575
19.157
20.1068
21.1098
22.169
23.2873
24.4681
25.7147
27.0307
28.4199
29.8863
31.4342
33.0678
34.7918
36.611
38.5308
40.5563
42.6931
44.947
47.3243
49.8311
52.4738
55.2587
58.1922
61.2806
64.5299
67.9448
71.5288
75.2836
79.2066
83.2901
87.5175
91.8606
96.2651
100.662
104.877
108.815
111.727
114.124
111.51
111.487
82.862
87.78
-69.1262
3.48779
3.51166
3.53021
3.55854
3.60125
3.65483
3.71631
3.78543
3.86268
3.94803
4.04118
4.14203
4.25063
4.36714
4.49173
4.62458
4.76601
4.91633
5.07596
5.24532
5.42491
5.61523
5.81686
6.03049
6.25679
6.49643
6.75026
7.01912
7.30383
7.60539
7.92479
8.2631
8.62151
9.00114
9.40339
9.82944
10.2807
10.7588
11.2652
11.8016
12.3698
12.9716
13.609
14.2838
14.9984
15.755
16.5559
17.4035
18.3006
19.2498
20.254
21.3162
22.4395
23.6273
24.8829
26.2101
27.6124
29.094
30.659
32.3116
34.0561
35.8974
37.84
39.8887
42.0488
44.3252
46.7229
49.2464
51.9003
54.6886
57.6142
60.6781
63.8804
67.2168
70.6782
74.2487
77.9013
81.5949
85.255
88.7935
91.9844
94.7288
96.0672
96.7785
91.1026
89.1548
51.7735
57.1301
-138.21
3.05014
3.06255
3.07812
3.10036
3.13151
3.1707
3.21638
3.26803
3.32582
3.38981
3.45989
3.53601
3.61824
3.70676
3.80174
3.90341
4.01206
4.128
4.25162
4.38334
4.52363
4.67301
4.83201
5.00123
5.18129
5.37295
5.57689
5.7939
6.02488
6.2707
6.53232
6.81073
7.10704
7.42231
7.75779
8.11479
8.49464
8.89866
9.32847
9.78555
10.2716
10.7883
11.3375
11.9211
12.5412
13.1997
13.899
14.6414
15.4293
16.2651
17.1515
18.0912
19.0872
20.1424
21.26
22.4431
23.6951
25.0194
26.4197
27.8997
29.4631
31.1137
32.8555
34.6923
36.6279
38.666
40.81
43.0629
45.4266
47.9025
50.4908
53.1887
55.9915
58.8893
61.8663
64.898
67.9455
70.9536
73.826
76.4541
78.5539
80.0301
79.6718
78.5965
69.5582
65.5953
18.5467
24.2209
-204.183
2.60219
2.6083
2.61918
2.63427
2.65452
2.68006
2.71015
2.74434
2.7827
2.82534
2.87226
2.92348
2.97913
3.03938
3.10443
3.17451
3.24992
3.33099
3.41806
3.51154
3.61187
3.71954
3.83506
3.95901
4.09199
4.23464
4.38764
4.55178
4.72782
4.91659
5.11898
5.33596
5.56858
5.81794
6.08502
6.3711
6.67739
7.00536
7.35622
7.73159
8.13296
8.56195
9.0203
9.50971
10.0321
10.5895
11.1838
11.8171
12.4918
13.2101
13.9744
14.7871
15.6509
16.5685
17.5426
18.5759
19.6714
20.8321
22.0611
23.3613
24.7359
26.1879
27.7201
29.3354
31.0364
32.8254
34.704
36.673
38.7327
40.8817
43.1161
45.4297
47.8131
50.2501
52.7177
55.1819
57.5913
59.8755
61.9143
63.5791
64.5179
64.6532
62.4695
59.5357
46.803
40.8989
-16.7627
-10.1614
-269.342
2.14713
2.15082
2.15587
2.1629
2.17261
2.18498
2.19959
2.21628
2.23517
2.25638
2.28002
2.30618
2.335
2.36668
2.40146
2.43958
2.48133
2.52703
2.57702
2.6317
2.69146
2.75676
2.8281
2.906
2.99099
3.08373
3.18486
3.29504
3.41502
3.5456
3.6876
3.84187
4.00945
4.19122
4.38835
4.60185
4.83296
5.08293
5.35302
5.64462
5.95919
6.29821
6.66328
7.05601
7.47816
7.93152
8.41795
8.93938
9.49785
10.0954
10.7343
11.4166
12.1447
12.9209
13.7476
14.6272
15.5621
16.5549
17.608
18.7237
19.9045
21.1525
22.4697
23.8579
25.3183
26.8519
28.4585
30.1372
31.8856
33.6999
35.5731
37.4948
39.4506
41.4189
43.3687
45.257
47.0198
48.5729
49.7705
50.4683
50.2396
49.0493
45.0234
40.3356
23.8104
16.4683
-52.1861
-43.2069
-353.159
1.6887
1.69188
1.69045
1.68887
1.68817
1.68752
1.68662
1.68568
1.68495
1.68459
1.68474
1.68556
1.68727
1.69007
1.69422
1.69997
1.70761
1.71743
1.72979
1.74505
1.76359
1.78583
1.81222
1.84327
1.87947
1.92138
1.96958
2.02474
2.08753
2.1587
2.23897
2.32917
2.43015
2.54293
2.66837
2.80764
2.96167
3.13173
3.3189
3.5246
3.75006
3.99669
4.26595
4.55932
4.87841
5.22482
5.60026
6.00647
6.44527
6.91847
7.42798
7.9758
8.56385
9.19408
9.86858
10.5893
11.3582
12.1773
13.0483
13.9731
14.9531
15.9898
17.084
18.2365
19.4471
20.7153
22.0391
23.4156
24.84
26.3051
27.8008
29.3127
30.8204
32.2963
33.7017
34.9834
36.0636
36.8428
37.1473
36.8166
35.3378
32.7315
26.7076
20.1372
-0.532623
-9.5697
-89.9409
-79.7584
-415.25
1.23089
1.23335
1.22519
1.21491
1.20367
1.18987
1.17328
1.15451
1.13396
1.1118
1.08819
1.0634
1.03766
1.01123
0.984363
0.95732
0.930386
0.903864
0.878071
0.85335
0.83006
0.808559
0.789305
0.772686
0.759223
0.749406
0.743771
0.742901
0.747422
0.757936
0.775235
0.800037
0.833139
0.875303
0.927567
0.990737
1.06595
1.1541
1.25647
1.37404
1.50811
1.65994
1.83083
2.02216
2.23533
2.47183
2.73314
3.0208
3.3364
3.6816
4.05797
4.46718
4.91089
5.39071
5.9083
6.46519
7.06287
7.70265
8.3859
9.11351
9.88638
10.7048
11.5688
12.4778
13.4304
14.4243
15.456
16.5202
17.6096
18.714
19.8196
20.9078
21.9529
22.9206
23.7639
24.4195
24.7957
24.778
24.1625
22.7773
20.0103
15.9704
7.87416
-0.523644
-25.5407
-35.9148
-128.186
-115.992
-480.34
0.77738
0.777142
0.762531
0.743749
0.721601
0.694191
0.66162
0.624782
0.584115
0.539815
0.492143
0.441409
0.3879
0.331872
0.273601
0.213354
0.151415
0.0880786
0.0236368
-0.041619
-0.107346
-0.173168
-0.238757
-0.303687
-0.367569
-0.429939
-0.490286
-0.548126
-0.602922
-0.654023
-0.700835
-0.74271
-0.778897
-0.808558
-0.831038
-0.845395
-0.850755
-0.846102
-0.830552
-0.802972
-0.762281
-0.707367
-0.637047
-0.550088
-0.44525
-0.321233
-0.176728
-0.0103658
0.179194
0.393331
0.633421
0.90078
1.19679
1.52274
1.87977
2.26904
2.69151
3.14805
3.63924
4.16546
4.72651
5.32205
5.95099
6.61157
7.30112
8.01556
8.74964
9.49592
10.2446
10.9828
11.6927
12.3511
12.9279
13.3823
13.6586
13.6839
13.3528
12.5372
11.0021
8.57123
4.52263
-0.908574
-11.0689
-21.1273
-50.4877
-61.6561
-165.514
-150.404
-560.547
0.331415
0.325241
0.304984
0.278047
0.244303
0.202602
0.15365
0.0983852
0.0372113
-0.0296093
-0.101727
-0.178787
-0.260476
-0.346506
-0.436597
-0.530472
-0.627876
-0.728535
-0.832175
-0.938492
-1.04721
-1.15806
-1.27067
-1.38471
-1.49979
-1.61556
-1.73159
-1.84746
-1.96258
-2.0765
-2.18869
-2.29849
-2.40529
-2.5085
-2.60728
-2.70088
-2.78857
-2.86947
-2.94265
-3.00726
-3.0623
-3.10676
-3.13961
-3.1598
-3.16623
-3.15778
-3.1333
-3.09169
-3.03179
-2.95253
-2.85277
-2.73147
-2.58768
-2.42045
-2.229
-2.01266
-1.77097
-1.50372
-1.21092
-0.89304
-0.550879
-0.185892
0.199768
0.603033
1.01973
1.44435
1.86969
2.28593
2.68062
3.03739
3.33514
3.54643
3.6345
3.55224
3.23523
2.60081
1.52811
-0.124794
-2.62769
-6.15814
-11.5639
-18.4569
-30.8213
-42.6268
-76.5935
-88.8231
-204.41
-187.946
-610.817
-0.104226
-0.120292
-0.144829
-0.179563
-0.225882
-0.28274
-0.348563
-0.422662
-0.504792
-0.594599
-0.691592
-0.795376
-0.905636
-1.02207
-1.14439
-1.27234
-1.40564
-1.54407
-1.68734
-1.83526
-1.98755
-2.14393
-2.30414
-2.46793
-2.63498
-2.80493
-2.97743
-3.15209
-3.32854
-3.50634
-3.68492
-3.86387
-4.04263
-4.22055
-4.39706
-4.57146
-4.74305
-4.9112
-5.07509
-5.23378
-5.38658
-5.53259
-5.67089
-5.80061
-5.92078
-6.0305
-6.12886
-6.2149
-6.28779
-6.34655
-6.3905
-6.41881
-6.43085
-6.42614
-6.40423
-6.36501
-6.30849
-6.23513
-6.14552
-6.0408
-5.92282
-5.79394
-5.65731
-5.51743
-5.37959
-5.25126
-5.14161
-5.0627
-5.02962
-5.06174
-5.18415
-5.42915
-5.83807
-6.46572
-7.38444
-8.68715
-10.51
-13.0068
-16.4841
-21.1113
-27.8789
-36.195
-50.7735
-64.1618
-102.735
-115.562
-242.068
-223.896
-667.092
-0.527204
-0.557336
-0.58424
-0.62657
-0.686779
-0.759785
-0.843005
-0.936429
-1.04008
-1.15338
-1.27571
-1.40666
-1.54593
-1.69319
-1.84816
-2.01059
-2.18021
-2.35683
-2.54024
-2.7302
-2.92653
-3.12905
-3.33752
-3.55167
-3.77129
-3.99613
-4.22587
-4.46027
-4.69895
-4.9415
-5.18762
-5.43686
-5.68873
-5.94267
-6.19835
-6.45509
-6.71217
-6.96924
-7.22543
-7.48013
-7.73267
-7.9823
-8.22823
-8.4698
-8.7062
-8.93662
-9.16046
-9.37689
-9.58541
-9.78526
-9.97602
-10.1572
-10.3286
-10.4899
-10.6413
-10.783
-10.9157
-11.0401
-11.158
-11.2709
-11.3818
-11.4936
-11.6109
-11.7392
-11.8857
-12.059
-12.2706
-12.5348
-12.8688
-13.2958
-13.8442
-14.551
-15.4636
-16.6421
-18.1679
-20.1432
-22.7195
-26.0604
-30.5117
-36.2241
-44.347
-54.0363
-70.8132
-85.6263
-128.693
-141.827
-278.195
-258.714
-725.84
-0.935565
-0.983725
-1.01063
-1.06063
-1.13632
-1.22653
-1.32772
-1.44108
-1.56687
-1.70425
-1.85243
-2.01104
-2.17976
-2.35829
-2.54633
-2.74366
-2.95004
-3.16531
-3.3893
-3.62182
-3.86273
-4.1119
-4.36913
-4.6343
-4.90721
-5.1877
-5.47553
-5.77049
-6.07236
-6.38078
-6.69541
-7.01608
-7.34237
-7.67385
-8.01008
-8.3506
-8.69502
-9.04281
-9.3934
-9.74619
-10.1007
-10.4563
-10.8123
-11.1684
-11.5238
-11.8779
-12.2303
-12.5805
-12.9281
-13.2728
-13.6143
-13.9524
-14.2873
-14.6192
-14.9486
-15.2764
-15.6035
-15.9317
-16.2629
-16.5998
-16.946
-17.3057
-17.6845
-18.0892
-18.5284
-19.0128
-19.5554
-20.173
-20.886
-21.7203
-22.7089
-23.8924
-25.3238
-27.0709
-29.2234
-31.893
-35.2471
-39.4582
-44.9152
-51.7418
-61.2663
-72.3505
-91.4025
-107.641
-155.247
-168.888
-314.366
-295.179
-757.49
-1.32764
-1.39722
-1.42138
-1.47949
-1.57249
-1.68096
-1.80077
-1.93474
-2.08338
-2.24543
-2.41998
-2.60672
-2.80537
-3.01558
-3.23711
-3.46971
-3.71325
-3.96756
-4.23249
-4.50794
-4.79387
-5.09014
-5.39668
-5.71338
-6.04017
-6.37693
-6.72351
-7.07979
-7.44557
-7.82064
-8.20492
-8.59812
-8.99988
-9.4099
-9.82806
-10.254
-10.687
-11.127
-11.5735
-12.0261
-12.4844
-12.9479
-13.4163
-13.889
-14.3657
-14.8459
-15.3295
-15.8161
-16.3056
-16.7979
-17.293
-17.7913
-18.2931
-18.7991
-19.31
-19.8273
-20.3527
-20.8883
-21.437
-22.0021
-22.5879
-23.1999
-23.8447
-24.5305
-25.2674
-26.0675
-26.9461
-27.9224
-29.0191
-30.2655
-31.698
-33.3622
-35.317
-37.6357
-40.4166
-43.78
-47.9093
-52.9826
-59.4345
-67.3471
-78.2489
-90.6416
-111.917
-129.349
-181.267
-195.014
-347.942
-329.557
-797.638
-1.70201
-1.79551
-1.81398
-1.88109
-1.99345
-2.12125
-2.26034
-2.41569
-2.58793
-2.77527
-2.97674
-3.19211
-3.42113
-3.66348
-3.91889
-4.18715
-4.46818
-4.7619
-5.06813
-5.38696
-5.7183
-6.06208
-6.41836
-6.78709
-7.16828
-7.5619
-7.96783
-8.38613
-8.81664
-9.25933
-9.71401
-10.1806
-10.659
-11.149
-11.6502
-12.1625
-12.6858
-13.2196
-13.7639
-14.3181
-14.8821
-15.4556
-16.0382
-16.6298
-17.2301
-17.839
-18.4563
-19.082
-19.7162
-20.3592
-21.0111
-21.6726
-22.3446
-23.0279
-23.7241
-24.4347
-25.1621
-25.9092
-26.6794
-27.4768
-28.3066
-29.1754
-30.0909
-31.0624
-32.1014
-33.2221
-34.4417
-35.7811
-37.2666
-38.9304
-40.8118
-42.9618
-45.4437
-48.3371
-51.749
-55.8071
-60.7109
-66.6409
-74.081
-83.057
-95.3191
-108.952
-132.403
-150.879
-206.836
-220.637
-379.423
-363.167
-833.369
-2.05743
-2.17626
-2.18601
-2.26359
-2.39749
-2.54562
-2.70469
-2.88229
-3.07892
-3.29222
-3.52118
-3.76572
-4.02558
-4.30046
-4.59011
-4.89441
-5.2133
-5.54673
-5.89469
-6.25717
-6.6343
-7.02602
-7.43247
-7.85373
-8.28983
-8.74084
-9.20684
-9.68784
-10.1839
-10.695
-11.2211
-11.7622
-12.3183
-12.8892
-13.4749
-14.0754
-14.6904
-15.3197
-15.9634
-16.6212
-17.2929
-17.9785
-18.6778
-19.3907
-20.1173
-20.8575
-21.6115
-22.3794
-23.1616
-23.9586
-24.7709
-25.5996
-26.4457
-27.3107
-28.1963
-29.1048
-30.0392
-31.0027
-31.9997
-33.0349
-34.1146
-35.2463
-36.4387
-37.7028
-39.0514
-40.5004
-42.0689
-43.7803
-45.6634
-47.7537
-50.0943
-52.7404
-55.7608
-59.2414
-63.2969
-68.0627
-73.7551
-80.5541
-88.9982
-99.0435
-112.686
-127.544
-153.185
-172.673
-232.499
-246.647
-409.868
-397.674
-843.309
-2.39278
-2.53701
-2.53519
-2.62525
-2.78293
-2.95232
-3.13216
-3.33294
-3.5548
-3.79469
-4.05171
-4.32589
-4.61702
-4.92483
-5.24907
-5.58972
-5.94672
-6.32011
-6.71001
-7.11645
-7.53961
-7.97956
-8.43656
-8.91067
-9.40208
-9.91096
-10.4375
-10.9818
-11.5439
-12.1242
-12.7224
-13.3388
-13.9736
-14.6266
-15.2979
-15.9876
-16.6956
-17.4218
-18.1665
-18.9294
-19.7106
-20.5102
-21.3281
-22.1645
-23.0195
-23.8934
-24.7864
-25.699
-26.6319
-27.5856
-28.5612
-29.5599
-30.5831
-31.6328
-32.7112
-33.8211
-34.9657
-36.1493
-37.3765
-38.6534
-39.9868
-41.3852
-42.8583
-44.4186
-46.0803
-47.8611
-49.7824
-51.869
-54.153
-56.6727
-59.4747
-62.6182
-66.177
-70.2428
-74.9384
-80.4045
-86.875
-94.5242
-103.95
-115.017
-129.996
-145.962
-173.694
-193.958
-257.241
-271.54
-436.93
-431.662
-860.273
-2.70694
-2.87529
-2.85939
-2.96461
-3.14829
-3.33977
-3.54123
-3.76619
-4.01409
-4.28124
-4.56686
-4.87118
-5.194
-5.53504
-5.89415
-6.27137
-6.66673
-7.08035
-7.51235
-7.96295
-8.43236
-8.92079
-9.42855
-9.95586
-10.503
-11.0701
-11.6576
-12.2657
-12.8945
-13.5444
-14.2155
-14.9081
-15.6224
-16.3585
-17.1165
-17.8964
-18.6987
-19.5233
-20.3703
-21.24
-22.1323
-23.0476
-23.9861
-24.9479
-25.9334
-26.9432
-27.9775
-29.0373
-30.1232
-31.2363
-32.3778
-33.5492
-34.7525
-35.9898
-37.2639
-38.5782
-39.9362
-41.3428
-42.8036
-44.3251
-45.9153
-47.5833
-49.3405
-51.2
-53.1779
-55.2931
-57.5692
-60.0332
-62.7192
-65.6688
-68.9323
-72.5725
-76.668
-81.3149
-86.6441
-92.8003
-100.035
-108.511
-118.892
-130.93
-147.197
-164.16
-193.869
-214.717
-281
-295.42
-460.823
-461.349
-884.663
-2.99888
-3.1886
-3.1567
-3.28036
-3.49222
-3.70654
-3.93055
-4.1808
-4.45559
-4.75063
-5.0654
-5.40033
-5.7552
-6.1298
-6.52405
-6.93806
-7.37195
-7.82598
-8.30028
-8.79522
-9.31109
-9.8482
-10.407
-10.9877
-11.5908
-12.2165
-12.8654
-13.5377
-14.2339
-14.9541
-15.6989
-16.4685
-17.2632
-18.0834
-18.9292
-19.8008