/*--------------------------------*- C++ -*----------------------------------*\
  =========                 |
  \\      /  F ield         | OpenFOAM: The Open Source CFD Toolbox
   \\    /   O peration     | Website:  https://openfoam.org
    \\  /    A nd           | Version:  11
     \\/     M anipulation  |
\*---------------------------------------------------------------------------*/
FoamFile
{
    format      ascii;
    class       surfaceScalarField;
    location    "250";
    object      phi;
}
// * * * * * * * * * * * * * * * * * * * * * * * * * * * * * * * * * * * * * //

dimensions      [0 3 -1 0 0 0 0];

internalField   nonuniform List<scalar> 
62845
(
422040
-1.89564e+06
1.90583e+06
396415
-1.80377e+06
1.8294e+06
379165
-1.71304e+06
1.73029e+06
359584
-1.62674e+06
1.64632e+06
342028
-1.54462e+06
1.56218e+06
324641
-1.46658e+06
1.48396e+06
308481
-1.39219e+06
1.40835e+06
292944
-1.32148e+06
1.33701e+06
278219
-1.25423e+06
1.26895e+06
264190
-1.19034e+06
1.20437e+06
250915
-1.12966e+06
1.14293e+06
238333
-1.07199e+06
1.08458e+06
226295
-1.01715e+06
1.02919e+06
214974
-965178
976499
204104
-915675
926545
193919
-868793
878979
184149
-824127
833897
174880
-781830
791098
166147
-741643
750377
157834
-703417
711730
149878
-667149
675105
142416
-632786
640248
135285
-600024
607155
128523
-569013
575774
122119
-539547
545952
116011
-511527
517634
110239
-484997
490769
104745
-459759
465253
99567.5
-435857
441035
94548.9
-413041
418060
89880.1
-391509
396178
85403.8
-371008
375484
81161.1
-351586
355828
77145.5
-333093
337109
73300.9
-315576
319421
69669.7
-298934
302566
66195.9
-283164
286638
62923.4
-268167
271440
59797.2
-253935
257062
56822
-240437
243412
53992.4
-227626
230456
51303.9
-215467
218155
48742.2
-203922
206484
46307.7
-192972
195406
43986.9
-182574
184895
41780.6
-172707
174914
39671
-163342
165451
37668.9
-154460
156462
35756.9
-146022
147934
33936.6
-138022
139842
32200.6
-130423
132159
30545.8
-123214
124869
28960.9
-116367
117952
27456.9
-109877
111381
26017.8
-103711
105150
24641.5
-97853.3
99229.6
23330.4
-92301.4
93612.5
22073.6
-87026.2
88283
20878.1
-82016.6
83212.2
19733.2
-77261.5
78406.4
18637.2
-72745.7
73841.6
17588.6
-68453.7
69502.3
16585.6
-64379.1
65382.1
15626.9
-60506.9
61465.7
14706.7
-56826.4
57746.5
13827.8
-53326.8
54205.7
12980.6
-49997.7
50844.9
12167.9
-46832.5
47645.2
11392.4
-43824.7
44600.3
10644.8
-40952.1
41699.6
9924
-38219.8
38940.6
9232.55
-35613.8
36305.2
8569.13
-33130.9
33794.3
7925.26
-30753.6
31397.5
7306.75
-28482.5
29101
6706.07
-26309.6
26910.2
6125.39
-24224.2
24804.9
5561.96
-22221.3
22784.7
5014.04
-20292.1
20840
4479.76
-18429.8
18964
3957.39
-16626.2
17148.6
3445.06
-14873.3
15385.6
2941.13
-13162.6
13666.5
2443.38
-11485.9
11983.6
1950.21
-9832.87
10326
1461.92
-8199.43
8687.71
975.593
-6570.43
7056.75
511.148
-4976.39
5440.83
-3324.65
3835.79
513270
-1.8724e+06
487535
-1.77804e+06
463550
-1.68905e+06
440496
-1.60369e+06
418471
-1.5226e+06
397404
-1.44551e+06
377430
-1.37221e+06
358411
-1.30246e+06
340316
-1.23613e+06
323168
-1.17319e+06
306852
-1.11334e+06
291346
-1.05649e+06
276683
-1.00249e+06
262691
-951186
249456
-902440
236857
-856194
224929
-812199
213554
-770454
202767
-730857
192555
-693205
182902
-657496
173645
-623528
164921
-591301
156569
-560660
148677
-531655
141233
-504083
134129
-477893
127352
-452982
120894
-429399
114847
-406994
109100
-385762
103598
-365506
98332.4
-346320
93393.7
-328154
88677.2
-310860
84224.7
-294482
79982.2
-278921
75942.1
-264127
72084.6
-250078
68437.9
-236790
64964
-224152
61662.4
-212165
58522.8
-200783
55532.5
-189981
52685.9
-179727
49980.2
-170002
47406.5
-160768
44951.8
-152005
42617.6
-143688
40391.1
-135795
38274.2
-128306
36254.7
-121195
34334.6
-114446
32497.4
-108040
30745.4
-101959
29080.8
-96188.7
27487.9
-90708.6
25969.1
-85507.4
24518
-80565.5
23132.6
-75876.2
21811.1
-71424.2
20547.6
-67190.2
19344.5
-63176.1
18187.6
-59350
17083.6
-55722.4
16031.1
-52274.2
15024.3
-48990.9
14058
-45866.2
13130.8
-42897.5
12241.3
-40062.5
11391.9
-37370.5
10577.5
-34799.4
9789.37
-32342.8
9033.61
-29997.9
8308.68
-27757.6
7608.66
-25609.5
6932.5
-23548.1
6278.78
-21567.6
5645.32
-19658.6
5030.22
-17814.7
4431.43
-16027.4
3846.88
-14288.7
3274.23
-12589.9
2711.66
-10923.3
2156.85
-9278.07
1609.36
-7651.94
1068.21
-6029.28
544.932
-4453.12
-2779.72
606249
-1.84136e+06
576284
-1.74807e+06
547478
-1.66025e+06
520066
-1.57627e+06
493988
-1.49652e+06
469106
-1.42063e+06
445427
-1.34853e+06
422941
-1.27997e+06
401577
-1.21477e+06
381262
-1.15288e+06
361983
-1.09406e+06
343669
-1.03817e+06
326302
-985119
309760
-934644
294075
-886755
279181
-841300
265060
-798078
251695
-757090
238922
-718083
226823
-681106
215285
-645958
204397
-612640
194044
-580948
184264
-550880
174895
-522285
166026
-495214
157597
-469464
149647
-445032
142069
-421821
134851
-399776
127937
-378848
121465
-359034
115331
-340186
109428
-322251
103896
-305328
98579.7
-289166
93524.9
-273867
88732.2
-259335
84212.2
-245558
79886.8
-232465
75782.8
-220048
71876.2
-208259
68159.3
-197066
64630.5
-186453
61271.9
-176369
58075.4
-166805
55036.6
-157729
52142.1
-149111
49388.2
-140934
46763.5
-133170
44263.9
-125806
41886.9
-118818
39620.3
-112180
37466.1
-105886
35408.1
-99901.1
33448.4
-94229.1
31584.6
-88844.7
29801.4
-83724.2
28105.2
-78869.3
26489.9
-74260.9
24940.3
-69874.7
23467.7
-65717.5
22057.4
-61765.7
20720.3
-58012.9
19438
-54440.1
18209.1
-51045.4
17036.1
-47817.9
15917.3
-44747.4
14843.4
-41823.6
13820.7
-39039.8
12840
-36389.9
11896.3
-33855.6
10995.5
-31442
10132.3
-29134.7
9298.76
-26924.1
8498.29
-24809.1
7728.66
-22778.4
6985.95
-20824.9
6268.57
-18941.2
5574.43
-17120.5
4900.57
-15353.6
4245.06
-13633.2
3605.3
-11950.2
2979
-10297
2363.82
-8662.88
1758.29
-7046.42
1163.27
-5434.26
582.926
-3872.78
-2196.8
698369
-1.8046e+06
663449
-1.71315e+06
630077
-1.62688e+06
598417
-1.54461e+06
568185
-1.46629e+06
539536
-1.39198e+06
512291
-1.32129e+06
486345
-1.25402e+06
461775
-1.1902e+06
438376
-1.12948e+06
416155
-1.07184e+06
395103
-1.01712e+06
375000
-965015
356027
-915671
337963
-868691
320841
-824179
304544
-781780
289055
-741601
274407
-703436
260488
-667186
247231
-632702
234674
-600083
222752
-569026
211405
-539533
200671
-511551
190437
-484981
180744
-459770
171532
-435820
162790
-413080
154460
-391446
146584
-370972
139104
-351554
131961
-333042
125198
-315488
118758
-298887
112684
-283092
106870
-268053
101361
-253826
96121.4
-240318
91148.3
-227492
86414.7
-215315
81914.3
-203758
77642.1
-192794
73570.4
-182381
69705.5
-172504
66030.6
-163130
62529.2
-154228
59202.7
-145784
56033.9
-137765
53022.3
-130159
50157.5
-122942
47425.1
-116086
44828.8
-109584
42351
-103408
39998.2
-97548.4
37750.1
-91981
35608.9
-86703.5
33576.3
-81691.6
31633
-76925.9
29780.7
-72408.6
28022.2
-68116.1
26338.1
-64033.4
24735.1
-60162.7
23198.7
-56476.5
21739.9
-52981.4
20348.4
-49653.9
19018.6
-46488.1
17745
-43473.8
16533.7
-40612.3
15371.8
-37877.9
14261.2
-35279.3
13200.8
-32795.2
12181.3
-30422.5
11205.2
-28158.6
10272.9
-25991.8
9376.5
-23912.7
8514.47
-21916.4
7685.18
-19995.6
6885.92
-18142
6113.97
-16348.6
5367.33
-14606.9
4642.54
-12908.5
3937.63
-11245.3
3249.33
-9608.71
2575.18
-7988.73
1913.37
-6384.61
1264.18
-4785.07
624.935
-3233.53
-1571.87
788461
-1.76268e+06
748818
-1.67351e+06
711009
-1.58907e+06
675123
-1.50873e+06
641078
-1.43225e+06
608615
-1.35951e+06
577783
-1.29046e+06
548562
-1.2248e+06
520770
-1.16241e+06
494388
-1.1031e+06
469354
-1.04681e+06
445487
-993255
422917
-942445
401433
-894188
381056
-848314
361676
-804799
343319
-763424
325871
-724153
309266
-686831
293539
-651460
278626
-617789
264411
-585869
250934
-555549
238182
-526780
226041
-499411
214502
-473442
203555
-448823
193139
-425404
183243
-403184
173860
-382064
164980
-362092
156446
-343020
148450
-325046
140833
-307871
133541
-291595
126615
-276166
120099
-261536
113873
-247600
107961
-234406
102337
-221868
96991.1
-209969
91915.2
-198682
87087.9
-187966
82500.3
-177793
78134.1
-168138
73984.1
-158980
70038.6
-150282
66283.1
-142029
62713.5
-134196
59318.7
-126764
56084.6
-119707
53009.4
-113010
50079.2
-106653
47297
-100625
44641.6
-94892.9
42119.6
-89459
39714.9
-84298.8
37420.6
-79397.4
35243.4
-74748.6
33163.5
-70328.7
31183
-66135.7
29295.8
-62146.2
27495.6
-58362.5
25780.5
-54761.4
24144.4
-51345.3
22581.5
-48091
21094.2
-45000.8
19676.5
-42056.1
18315.1
-39250.9
17020
-36582.8
15781.9
-34041.2
14595.2
-31608.5
13466
-29293.3
12381.7
-27074.2
11342.6
-24952.7
10346.3
-22916.3
9390.48
-20960.6
8471.24
-19076.4
7586.93
-17257.7
6734.03
-15495.7
5909.53
-13782.4
5110.85
-12109.8
4334.68
-10469.1
3577.89
-8851.92
2837.23
-7248.07
2109.91
-5657.29
1395.65
-4070.81
684.109
-2522
-887.768
876352
-1.71598e+06
832091
-1.62925e+06
790059
-1.54704e+06
750073
-1.46874e+06
712138
-1.39431e+06
676099
-1.32348e+06
641860
-1.25622e+06
609335
-1.19228e+06
578396
-1.13147e+06
549063
-1.07376e+06
521186
-1.01893e+06
494779
-966848
469617
-917283
445785
-870356
423124
-825653
401597
-783271
381143
-742970
361759
-704768
343358
-668430
325839
-633941
309232
-601182
293475
-570112
278505
-540579
264259
-512534
250725
-485877
237943
-460659
225701
-436581
214139
-413842
203149
-392194
192770
-371685
182796
-352117
173466
-333690
164474
-316054
155962
-299360
147923
-283556
140252
-268495
132940
-254225
126037
-240697
119454
-227822
113204
-215618
107268
-204033
101621
-193035
96252.1
-182598
91153.1
-172694
86304.9
-163289
81690
-154365
77308
-145900
73140.3
-137861
69176.1
-130231
65400.7
-122989
61814.4
-116121
58402.6
-109599
55152.5
-103403
52060.7
-97533.7
49123.5
-91955.7
46321.6
-86657.1
43656.1
-81633.3
41120.7
-76862
38703.9
-72331.8
36403.3
-68028.2
34208
-63940.4
32124.9
-60063
30134.4
-56372
28243.2
-52870.3
26432.5
-49534.6
24713.1
-46371.6
23066.7
-43354.4
21499.6
-40489.1
20006.2
-37757.4
18580.6
-35157.1
17213.6
-32674.2
15914.9
-30309.8
14671.4
-28049.9
13481.6
-25884.4
12340.8
-23811.9
11249.4
-21825
10203.1
-19914.3
9198.8
-18072
8233.17
-16292.1
7303.18
-14565.7
6405.63
-12884.9
5537.19
-11241.3
4694.51
-9626.42
3873.66
-8031.07
3070.93
-6445.36
2283.09
-4869.44
1504.5
-3292.23
713.479
-1730.99
-174.308
961716
-1.66478e+06
913034
-1.58057e+06
866805
-1.50081e+06
822977
-1.42491e+06
781235
-1.35257e+06
741681
-1.28392e+06
704062
-1.2186e+06
668357
-1.15657e+06
634499
-1.09761e+06
602255
-1.04152e+06
571698
-988373
542616
-937766
515044
-889711
488844
-844156
464000
-800808
440351
-759623
417933
-720552
396606
-683441
376391
-648215
357191
-614740
339007
-582998
321669
-552774
305217
-524127
289589
-496906
274773
-471061
260658
-446544
247282
-423205
234586
-401147
222511
-380118
211046
-360220
200185
-341256
189818
-323323
179988
-306225
170687
-290059
161810
-274679
153398
-260083
145402
-246229
137785
-233080
130566
-220603
123706
-208758
117183
-197510
110983
-186835
105094
-176709
99493.5
-167094
94169
-157965
89111.1
-149308
84297.3
-141086
79723.2
-133287
75371.3
-125880
71237
-118854
67299.9
-112184
63561.1
-105860
60002.2
-99844.4
56616.8
-94148.2
53393
-88731.9
50328.1
-83592.2
47410.3
-78715.5
44632.2
-74083.9
41987.5
-69687.1
39473.9
-65514.5
37079.8
-61546.4
34795
-57778.2
32621.5
-54198.6
30553.1
-50801.8
28583.6
-47565.1
26698.5
-44486.5
24912.5
-41568.4
23203.3
-38779.9
21577.3
-36131.4
20020.7
-33600.6
18543.6
-31197
17125
-28891.3
15774.7
-26699.5
14482.8
-24592.6
13249.8
-22578.9
12069.3
-20644.5
10938
-18783
9854.14
-16988.2
8812.92
-15250.8
7812.03
-13564.8
6847.64
-11920.5
5916.26
-10310
5013.83
-8724
4136.72
-7153.95
3279.82
-5588.45
2439.56
-4029.19
1603.91
-2456.58
759.281
-886.361
584.973
1.04441e+06
-1.60917e+06
991555
-1.52771e+06
941344
-1.45059e+06
893609
-1.37718e+06
848348
-1.30731e+06
805343
-1.24092e+06
764483
-1.17774e+06
725684
-1.11777e+06
688832
-1.06076e+06
653841
-1.00653e+06
620599
-955132
589070
-906237
559136
-859776
530635
-815655
503588
-773762
477987
-734021
453605
-696170
430484
-660320
408493
-626224
387637
-593884
367785
-563147
348983
-533972
331119
-506263
314118
-479905
298031
-454974
282692
-431206
268193
-408706
254371
-387325
241269
-367016
228827
-347779
216987
-329416
205741
-312076
195080
-295564
184948
-279927
175288
-265020
166144
-250939
157453
-237538
149196
-224823
141347
-212754
133885
-201297
126801
-190426
120066
-180100
113668
-170311
107581
-161006
101802
-152187
96306.5
-143812
91078.6
-135858
86110.2
-128319
81392.8
-121162
76900.2
-114362
72633.6
-107917
68564
-101790
64705.5
-95985.9
61030.2
-90472.9
57536.2
-85238
54215.2
-80271.2
51050.6
-75550.9
48041.6
-71074.9
45176.2
-66821.7
42451.3
-62789.7
39856.9
-58951.9
37385.4
-55306.6
35035.3
-51848.5
32796
-48562.5
30660.9
-45430.1
28632.8
-42458.3
26696.7
-39632.3
24855.3
-36938.5
23094.6
-34370.7
21424.5
-31930.5
19823.8
-29596.3
18302
-27369.6
16846.6
-25244
15460.1
-23206
14134.1
-21252.9
12866.5
-19377
11654.4
-17570.9
10492.8
-15826.5
9380.05
-14138.1
8310.81
-12495.6
7282.78
-10892.5
6291.4
-9318.57
5332.48
-7765.08
4401.63
-6223.11
3493.94
-4680.76
2604.22
-3139.48
1716.41
-1568.78
861.897
-31.866
1446.85
1.12413e+06
-1.54927e+06
1.06726e+06
-1.47085e+06
1.01322e+06
-1.39655e+06
961905
-1.32587e+06
913185
-1.25859e+06
866827
-1.19456e+06
822912
-1.13383e+06
781112
-1.07597e+06
741433
-1.02108e+06
703838
-968932
668010
-919305
634060
-872286
601802
-827518
571170
-785023
542089
-744681
514451
-706382
488230
-669949
463309
-635400
439680
-602595
417168
-571372
395864
-541843
375559
-513667
356330
-487033
338077
-461652
320682
-437579
304228
-414752
288563
-393041
273725
-372487
259556
-352846
246144
-334367
233431
-316704
221312
-299957
209778
-284029
198870
-269020
188532
-254681
178650
-241057
169286
-228174
160389
-215926
151938
-204303
143905
-193264
136274
-182794
129024
-172850
122126
-163414
115579
-154459
109350
-145958
103429
-137890
97808.2
-130238
92459.1
-122970
87374
-116077
82542.5
-109530
77945.8
-103321
73578.4
-97422.8
69419.7
-91827.1
65469.5
-86522.7
61709.2
-81477.7
58128.7
-76690.8
54729.6
-72151.8
51494.3
-67839.5
48416
-63743.5
45485
-59858.7
42698.1
-56165
40044.5
-52653.1
37517.5
-49321.5
35110.6
-46155.6
32826.2
-43145.7
30645.3
-40277.5
28566.4
-37553.4
26587.4
-34959.4
24705.9
-32489.3
22908.6
-30133.2
21197.4
-27885.1
19566.5
-25738.7
18006.7
-23684.2
16520.1
-21719.5
15101.1
-19833.9
13744.8
-18020.7
12448.1
-16274.1
11207.1
-14585.5
10017.4
-12948.4
8876.17
-11354.4
7778.49
-9794.81
6720.56
-8260.64
5697.74
-6742.26
4705.12
-5230.49
3737.04
-3712.69
2786.41
-2188.84
1838.36
-620.732
933.368
873.122
2380.23
1.20092e+06
-1.48533e+06
1.14018e+06
-1.41011e+06
1.08246e+06
-1.33883e+06
1.0276e+06
-1.271e+06
975522
-1.20651e+06
926056
-1.14509e+06
879065
-1.08683e+06
834477
-1.03139e+06
792078
-978682
751825
-928679
713664
-881144
677310
-835932
642848
-793057
610153
-752329
579064
-713592
549499
-676817
521507
-641957
494862
-608755
469598
-577331
445604
-547379
422764
-519003
401113
-492015
380547
-466467
360993
-442098
342492
-419078
324842
-397102
308123
-376323
292179
-356543
277149
-337816
262776
-319994
249152
-303079
236217
-287022
223964
-271777
212239
-257294
201133
-243575
190637
-230561
180625
-218161
171118
-206419
162078
-195263
153492
-184678
145332
-174635
137579
-165097
130213
-156048
123214
-147460
116559
-139304
110239
-131570
104226
-124225
98511.9
-117255
93078.2
-110643
87916.7
-104369
83005.5
-98409.6
78335.2
-92752.5
73901
-87392.9
69678.5
-82300.2
65661.9
-77461.1
61847.3
-72876.2
58218.8
-68523.3
54759.7
-64380.4
51479.1
-60462.9
48348.1
-56727.7
45372.2
-53189.1
42548
-49828.9
39855.7
-46629.2
37288.8
-43588.7
34849.2
-40706.1
32527.4
-37955.6
30316.4
-35342.5
28210.5
-32853.5
26203.7
-30482.4
24290
-28219.5
22467.7
-26062.8
20731
-24001.9
19077.4
-22030.7
17498.2
-20140.2
15990.8
-18326.5
14551.6
-16581.6
13175.7
-14898.2
11860.1
-13269.9
10600.1
-11688.4
9391.3
-10145.6
8229.88
-8633.39
7111.33
-7142.09
6030.57
-5661.51
4982.14
-4182.06
3959.35
-2689.9
2955.51
-1185.01
1956.88
377.904
992.849
1837.13
3373.07
1.27438e+06
-1.41754e+06
1.20999e+06
-1.34572e+06
1.14873e+06
-1.27758e+06
1.09056e+06
-1.21284e+06
1.03528e+06
-1.15122e+06
982779
-1.09259e+06
932902
-1.03696e+06
885518
-984002
840611
-933775
797850
-885919
757265
-840559
718781
-797447
682185
-756460
647394
-717538
614409
-680607
583102
-645510
553348
-612204
525089
-580495
498214
-550455
472748
-521913
448541
-494796
425566
-469040
403658
-444559
382973
-421413
363236
-399341
344546
-378412
326780
-358557
309934
-339697
293858
-321740
278632
-304768
264152
-288599
250411
-273281
237399
-258765
225011
-244906
213235
-231800
202027
-219353
191397
-207531
181298
-196319
171702
-185667
162589
-175565
153923
-165968
145695
-156869
137868
-148221
130433
-140025
123371
-132242
116659
-124857
110278
-117844
104212
-111190
98448.6
-104880
92965.4
-98885.4
87756.5
-93200.8
82805
-87800.9
78096.3
-82684.2
73615.6
-77819.5
69358.6
-73204.1
65309.4
-68827
61455.7
-64669.6
57802
-60726.7
54313.6
-56974.4
51002.6
-53416.8
47849.1
-50035.6
44848.5
-46828.2
41998.3
-43779
39288.6
-40879
36698.2
-38115.8
34243
-35500.3
31904.2
-33003.7
29675.6
-30624.9
27551.5
-28358.3
25533.7
-26201.7
23612.1
-24141.3
21781.3
-22171.1
20032
-20281.3
18367
-18475.3
16778.7
-16738.2
15263.4
-15066.3
13816.3
-13451.1
12433.5
-11887.1
11110.3
-10365.3
9843.03
-8878.29
8627.09
-7417.46
7457.15
-5972.15
6328.47
-4532.83
5235.35
-3088.94
4169.43
-1623.99
3122.88
-138.457
2086.47
1414.31
1076.55
2847.05
4449.62
1.34447e+06
-1.34598e+06
1.2765e+06
-1.27774e+06
1.21194e+06
-1.21302e+06
1.15057e+06
-1.15146e+06
1.09224e+06
-1.0929e+06
1.03691e+06
-1.03726e+06
984269
-984320
934322
-934054
886830
-886284
841780
-840868
798950
-797729
758318
-756815
719707
-717849
683057
-680888
648236
-645785
615139
-612413
583699
-580764
553901
-550697
525568
-522122
498656
-495001
473074
-469214
448837
-444803
425820
-421541
403912
-399506
383098
-378526
363368
-358682
344622
-339811
326742
-321817
309873
-304871
293801
-288697
278523
-273322
264031
-258789
250218
-244952
237146
-231833
224713
-219367
212899
-207539
201683
-196316
191020
-185657
180889
-175536
171266
-165943
162120
-156822
153428
-148177
145180
-139973
137333
-132178
129872
-124781
122785
-117770
116051
-111110
109651
-104789
103568
-98797.4
97786.9
-93104.3
92284.4
-87698.3
87061
-82577.6
82092.3
-77715.5
77368.3
-73095.4
72880.8
-68716.6
68612.9
-64559.2
64552.1
-60608.8
60688.1
-56862.8
57017.7
-53303.9
53529.1
-49928.2
50211.4
-46717.8
47051
-43667.9
44045.4
-40773.4
41183.4
-38017
38470.2
-35402.6
35880.1
-32910.3
33414.9
-30538.5
31073.9
-28283.9
28846.2
-26130.6
26722.1
-24077.6
24699.7
-22118.8
22774.5
-20246
20943.1
-18449.9
19196.5
-16728.7
17532.3
-15073.9
15944.5
-13478.5
14430.1
-11936.7
12984.1
-10441.2
11602.4
-8983.5
10280.3
-7556.23
9012.91
-6150.08
7796.37
-4755.61
6624.31
-3360.78
5490.81
-1955.45
4384.67
-517.857
3303.56
942.651
2232.04
2485.83
1180.62
3898.46
5630.24
1.41101e+06
-1.27102e+06
1.33974e+06
-1.20647e+06
1.27192e+06
-1.14521e+06
1.20757e+06
-1.08711e+06
1.1464e+06
-1.03173e+06
1.08829e+06
-979150
1.03308e+06
-929110
980690
-881665
930846
-836440
883583
-793605
838673
-752819
795948
-714090
755449
-677351
716994
-642433
680426
-609218
645760
-577747
612797
-547801
581469
-519370
551703
-492356
523489
-466787
496673
-442399
471174
-419305
446998
-397365
424020
-376527
402188
-356694
381442
-337937
361767
-320136
343103
-303152
325299
-287067
308388
-271786
292422
-257355
277186
-243552
262705
-230471
248957
-218085
235901
-206312
223501
-195139
211719
-184533
200520
-174457
189892
-164908
179780
-155830
170183
-147226
161059
-139053
152387
-131300
144148
-123939
136325
-116958
128883
-110328
121811
-104038
115092
-98070.8
108702
-92406.7
102627
-87029.8
96858.7
-81929.9
91375.5
-77094.3
86159
-72499
81199.9
-68136.4
76485.9
-64002.6
72005.2
-60078.5
67743
-56346.6
63693.5
-52813.3
59839.5
-49450
56172.1
-46260.8
52685.1
-43230.9
49373.9
-40356.6
46219.5
-37619.1
43219.5
-35016.9
40365.4
-32548.5
37652.7
-30197.6
35071.7
-27957.5
32613.5
-25825.8
30273.9
-23791
28046.3
-21850
25925
-19997.5
23906.6
-18227.5
21983.5
-16526.8
20150.7
-14896
18404
-13327.2
16738.4
-11812.9
15149.3
-10347.6
13631.2
-8923.04
12180.4
-7532.73
10791.9
-6167.69
9460.52
-4818.71
8180.89
-3475.98
6947.01
-2126.9
5751.74
-760.177
4582.1
651.778
3437.89
2086.87
2292.67
3631.05
1167.22
5023.91
6797.47
1.47376e+06
-1.19265e+06
1.39932e+06
-1.13204e+06
1.3286e+06
-1.07448e+06
1.26133e+06
-1.01984e+06
1.19745e+06
-967840
1.13676e+06
-918466
1.07915e+06
-871501
1.02435e+06
-826863
972385
-784475
922936
-744156
876023
-705907
831501
-669567
789169
-635020
748934
-602197
710769
-571053
674464
-541442
640038
-513374
607343
-486675
576306
-461318
546764
-437245
518760
-414395
492133
-392678
466851
-372083
442827
-352503
420044
-333911
398377
-316270
377732
-299491
358210
-283630
339676
-268533
322038
-254147
305235
-240553
289340
-227657
274240
-215371
259880
-203726
246239
-192671
233277
-182177
220962
-172218
209266
-162761
198147
-153789
187587
-145270
177550
-137189
168019
-129521
158958
-122240
150349
-115330
142164
-108772
134394
-102558
127006
-96649.7
119982
-91047.3
113305
-85729.4
106965
-80689.7
100937
-75902.1
95203.3
-71360.4
89755.2
-67050.9
84581.2
-62962.4
79660.5
-59081.8
74974.5
-55392.5
70527.7
-51899.8
66292.7
-48578.2
62272.4
-45429.7
58449.6
-42438.1
54812.1
-39593.3
51349.1
-36893.6
48060.3
-34330.3
44935.5
-31892.2
41957.6
-29570.6
39126.5
-27366.5
36433.6
-25264.5
33870.6
-23262.9
31434.9
-21355.3
29116.3
-19531.4
26910.3
-17791.6
24807.4
-16124.5
22806.2
-14525.7
20901.1
-12990.8
19085.9
-11512
17355.9
-10082.9
15705.9
-8697.65
14132.2
-7349.32
12628.7
-6029.18
11191
-4730.02
9814.22
-3441.95
8492.59
-2154.35
7219.02
-853.335
5985.45
473.383
4785.4
1851.82
3611.85
3260.42
2431.3
4811.6
1266.02
6189.18
8063.48
1.53266e+06
-1.11128e+06
1.4552e+06
-1.05458e+06
1.38166e+06
-1.00094e+06
1.31175e+06
-949926
1.24533e+06
-901428
1.18224e+06
-855374
1.12231e+06
-811570
1.06537e+06
-769922
1.01125e+06
-730357
959883
-692787
911103
-657127
864728
-623193
820698
-590990
778904
-560402
739168
-531317
701474
-503748
665617
-477517
631572
-452631
599281
-429027
568581
-406546
539398
-385212
511730
-365010
485425
-345778
460457
-327536
436717
-310171
414154
-293706
392808
-278146
372462
-263284
353115
-249186
334767
-235799
317366
-223151
300789
-211080
285061
-199643
270114
-188779
255918
-178475
242434
-168693
229619
-159403
217444
-150587
205880
-142225
194891
-134281
184455
-126752
174530
-119596
165105
-112815
156143
-106369
147635
-100263
139545
-94467.7
131855
-88960.1
124552
-83744.9
117615
-78791.7
111015
-74089.6
104744
-69631.6
98780.8
-65397.1
93115.2
-61385.3
87730
-57577.2
82607.5
-53959.3
77744.2
-50529.1
73117.8
-47273.5
68719.2
-44179.6
64538.8
-41249.3
60564.1
-38463.3
56782.9
-35812.2
53188.6
-33299.4
49772.9
-30914.6
46523.9
-28643.2
43434.2
-26480.9
40493.8
-24426.1
37698
-22468.8
35042.6
-20607.4
32512.6
-18825.4
30106.3
-17125.1
27816.8
-15502.1
25638.8
-13946.5
23566.8
-12453.7
21594
-11018
19715.6
-9633.52
17926.9
-8294.26
16222.5
-6993.19
14597.3
-5724.16
13046.8
-4478.69
11566
-3249.2
10149.4
-2025.29
8791.16
-796.152
7483.57
454.247
6222.54
1734.42
4996.98
3077.38
3801.21
4456.19
2595.08
6017.73
1400.46
7383.81
9463.94
1.58742e+06
-1.02687e+06
1.50732e+06
-974480
1.43113e+06
-924753
1.35877e+06
-877569
1.28998e+06
-832641
1.22462e+06
-790009
1.16254e+06
-749491
1.10359e+06
-710971
1.04755e+06
-674315
994378
-639620
943785
-606534
895795
-575202
850188
-545383
806896
-517111
765751
-490172
726700
-464697
689559
-440376
654327
-417398
620841
-395541
589036
-374740
558850
-355026
530166
-336326
502881
-318493
477029
-301684
452458
-285600
429107
-270356
406910
-255949
385808
-242181
365798
-229177
346833
-216833
328756
-205074
311594
-193918
295294
-183342
279812
-173297
265101
-163764
251122
-154714
237845
-146127
225231
-137972
213243
-130237
201860
-122898
191040
-115932
180759
-109316
170986
-103041
161710
-97093.7
152890
-91443.1
144500
-86078
136540
-80999.8
128970
-76174.9
121773
-71595.3
114938
-67253.9
108435
-63129.3
102264
-59225.9
96391.1
-55512.2
90811.2
-51997.4
85507
-48655.1
80465.4
-45487.5
75671.2
-42479.3
71117.1
-39625.5
66785.6
-36917.8
62662.9
-34340.6
58749.4
-31898.6
55031.4
-29581.4
51488.4
-27371.6
48120.5
-25275.3
44924.3
-23284.7
41882.5
-21384.2
38986.1
-19572.4
36230.4
-17851.8
33615.3
-16210.3
31126.5
-14636.3
28757.9
-13133.4
26504.3
-11692.9
24359.2
-10308.7
22318.5
-8977.24
20375.3
-7690.38
18524.7
-6443.64
16761.9
-5230.35
15081.2
-4043.53
13478.1
-2875.52
11947.3
-1718.45
10482.1
-560.068
9076.82
609.105
7725.59
1805.47
6422.17
3037.84
5152.41
4347.13
3912.4
5696.2
2657.17
7272.96
1412.2
8628.78
10876.1
1.63814e+06
-939933
1.55542e+06
-891756
1.47688e+06
-846213
1.40216e+06
-802849
1.33125e+06
-761731
1.26383e+06
-722586
1.19973e+06
-685398
1.1389e+06
-650137
1.08114e+06
-616552
1.02621e+06
-584694
974087
-554409
924536
-525651
877470
-498317
832742
-472383
790308
-447737
750004
-424394
711707
-402078
675354
-381046
640786
-360973
607985
-341939
576798
-323839
547166
-306693
519062
-290389
492344
-274965
466942
-260198
442898
-246312
419960
-233010
398218
-220440
377576
-208535
357921
-197179
339279
-186432
321564
-176204
304744
-166521
288756
-157309
273569
-148577
259142
-140287
245433
-132418
232414
-124953
220038
-117862
208283
-111142
197109
-104759
186497
-98704.3
176415
-92958.6
166828
-87507.2
157718
-82332.7
149069
-77428.7
140844
-72775.1
133025
-68356.2
125598
-64167.8
118539
-60195.8
111837
-56426.5
105456
-52844.8
99399.8
-49456.6
93636.4
-46233.9
88161.4
-43180.2
82959.5
-40285.7
78013
-37532.7
73308.6
-34921.1
68836.2
-32445.4
64589.8
-30094.3
60553
-27861.9
56708.8
-25737.2
53059.9
-23722.6
49585.2
-21800.6
46284.8
-19984.3
43143.7
-18243.1
40161.6
-16590.3
37322.5
-15012.7
34620.3
-13508.1
32053.3
-12069.3
29610.7
-10690.9
27287.1
-9369.3
25077.4
-8098.96
22973.5
-6873.36
20971.4
-5688.28
19065.1
-4537.3
17249.3
-3414.61
15518.8
-2313
13868.6
-1225.37
12291.7
-141.47
10784
947.566
9339.32
2053.81
7950.73
3194.06
6610.29
4378.28
5302.73
5654.69
4024.67
6974.26
2726.88
8570.75
1437.07
9918.59
12313.2
1.68443e+06
-850421
1.59947e+06
-806793
1.51862e+06
-765362
1.44187e+06
-726096
1.3689e+06
-688767
1.29961e+06
-653292
1.23377e+06
-619557
1.17121e+06
-587577
1.11178e+06
-557122
1.05529e+06
-528203
1.00169e+06
-500814
950723
-474681
902348
-449942
856421
-426456
812765
-404082
771271
-382899
731928
-362735
694465
-343584
658934
-325442
625155
-308161
593137
-291821
562702
-276258
533747
-261435
506213
-247431
480142
-234127
455330
-221501
431802
-209483
409445
-198083
388178
-187267
367993
-176993
348801
-167240
330585
-157988
313271
-149208
296833
-140871
281203
-132947
266364
-125448
252259
-118313
238859
-111553
226131
-105134
214035
-99045.7
202541
-93264.6
191624
-87786.7
181246
-82580.8
171387
-77648.2
162023
-72968.5
153121
-68526.9
144660
-64313.9
136620
-60316.7
128979
-56527
121720
-52937
114818
-49524.3
108263
-46289.8
102027
-43220
96102.6
-40309.7
90476.4
-37554
85120.9
-34930.2
80036
-32447.7
75200.2
-30085.4
70608.3
-27853.5
66239.6
-25725.6
62082.8
-23705.1
58134.4
-21788.7
54380.7
-19969
50820.1
-18240.1
47424.5
-16588.7
44199.3
-15018
41135.4
-13526.4
38222
-12099.3
35451
-10737
32816.4
-9434.75
30312.5
-8186.98
27930.4
-6987.24
25664.9
-5833.42
23510.1
-4718.55
21460
-3638.16
19509.4
-2586.73
17653
-1558.2
15884.6
-544.648
14199.2
460.09
12592.4
1465.29
11058
2481.98
9590.91
3520.89
8182.53
4602.43
6826.92
5733.9
5507.24
6974.36
4220.68
8260.82
2912.42
9879
1613.65
11217.4
13926.9
1.72642e+06
-758771
1.63925e+06
-719619
1.55651e+06
-682627
1.47785e+06
-647431
1.40305e+06
-613963
1.33205e+06
-582297
1.26458e+06
-552082
1.20043e+06
-523427
1.13952e+06
-496217
1.08172e+06
-470399
1.02671e+06
-445810
974523
-422493
924973
-400392
877849
-379332
833092
-359325
790568
-340375
750198
-322364
711889
-305275
675446
-288999
640860
-273574
608004
-258964
576732
-244986
547145
-231848
518957
-219243
492225
-207395
466781
-196056
442634
-185336
419694
-175143
397895
-165469
377196
-156294
357537
-147581
338858
-139309
321105
-131455
304238
-124004
288223
-116932
273002
-110227
258544
-103855
244809
-97817.1
231754
-92079.6
219350
-86640.9
207569
-81484.4
196371
-76588.2
185731
-71941.1
175621
-67538.3
166014
-63361.7
156883
-59395.3
148207
-55638.5
139967
-52076.5
132136
-48695.5
124689
-45490.2
117611
-42446.5
110889
-39567.8
104496
-36827.1
98427.8
-34241.1
92650
-31776.2
87167.5
-29447.7
81948.1
-27228.4
76993.7
-25131
72282.1
-23141.9
67800
-21243.5
63545.7
-19450.8
59503.8
-17746.8
55656.3
-16121.4
51996.8
-14580.6
48525
-13116.9
45222.3
-11715.3
42079.9
-10383.9
39094.7
-9114.17
36256.3
-7898.58
33557.9
-6736.36
30991.2
-5620.26
28551.4
-4547.4
26231.2
-3513.27
24025.1
-2512.48
21926.5
-1539.55
19930.1
-590.298
18029.8
342.064
16220.8
1264.4
14497
2183.89
12853.6
3108.67
11285.2
4050.4
9785.4
5020.67
8347.25
6040.58
6963.22
7117.93
5616.32
8321.27
4304.21
9572.93
2963.04
11220.2
1635.28
12545.1
15562.1
1.76379e+06
-665152
1.67482e+06
-630646
1.59022e+06
-598030
1.50987e+06
-567082
1.43357e+06
-537659
1.36098e+06
-509707
1.29205e+06
-483158
1.22658e+06
-457951
1.16439e+06
-434023
1.10526e+06
-411269
1.04913e+06
-389685
995836
-369197
945121
-349677
897014
-331226
851303
-313614
807885
-296957
766676
-281156
727445
-266044
690253
-251806
654902
-238224
621292
-225354
589446
-213141
559103
-201505
530380
-190519
502986
-180001
477024
-170093
452343
-160655
428900
-151701
406637
-143206
385484
-135141
365383
-127481
346283
-120209
328150
-113321
310921
-106774
294550
-100562
278989
-94665.7
264208
-89074.6
250162
-83771.5
236822
-78739.8
224151
-73969.1
212102
-69435.4
200656
-65142.2
189780
-61065.9
179447
-57205
169625
-53539.5
160299
-50069.9
151429
-46768.3
143001
-43648.4
134993
-40687.5
127384
-37881.6
120151
-35213
113273
-32690
106748
-30302.5
100535
-28027.5
94635.5
-25876.9
89025.3
-23837.5
83696.8
-21899.8
78629.6
-20063.8
73811.5
-18323.8
69239.4
-16671.4
64886.7
-15098.1
60750.6
-13610.7
56818.5
-12189.4
53084.2
-10846.2