/*--------------------------------*- C++ -*----------------------------------*\
  =========                 |
  \\      /  F ield         | OpenFOAM: The Open Source CFD Toolbox
   \\    /   O peration     | Website:  https://openfoam.org
    \\  /    A nd           | Version:  11
     \\/     M anipulation  |
\*---------------------------------------------------------------------------*/
FoamFile
{
    format      ascii;
    class       surfaceScalarField;
    location    "250";
    object      phi;
}
// * * * * * * * * * * * * * * * * * * * * * * * * * * * * * * * * * * * * * //

dimensions      [0 3 -1 0 0 0 0];

internalField   nonuniform List<scalar> 
62845
(
48162.3
-552801
554305
45172.3
-525588
528577
43300.2
-499135
501007
40954.8
-474205
476551
39029
-450394
452320
37008.3
-427834
429855
35210.2
-406351
408149
33435.8
-385959
387733
31782
-366561
368215
30185.1
-348150
349746
28693.7
-330659
332151
27277.8
-314046
315462
25911.9
-298242
299608
24643.2
-283268
284537
23405.2
-269004
270242
22267.2
-255494
256632
21158
-242621
243730
20105.7
-230429
231482
19125.6
-218844
219824
18187.9
-207822
208760
17278.1
-197363
198273
16440.1
-187451
188289
15629.8
-177999
178810
14861.9
-169051
169819
14136.3
-160547
161272
13438.2
-152458
153156
12782.4
-144798
145454
12154.1
-137508
138137
11567.8
-130604
131190
10979.7
-124011
124599
10448.1
-117788
118319
9929.23
-111861
112379
9437.6
-106244
106736
8973.17
-100894
101359
8521.35
-95825.4
96277.2
8096.68
-91007.9
91432.5
7684.59
-86441.4
86853.5
7299.64
-82096.7
82481.6
6927.3
-77971.8
78344.1
6570.51
-74057.8
74414.6
6229.32
-70341.3
70682.5
5903.79
-66811.7
67137.3
5591.08
-63458.8
63771.5
5292.75
-60276.2
60574.6
5005.98
-57252.3
57539
4732.34
-54380.8
54654.4
4467.6
-51652.9
51917.6
4216.25
-49064
49315.3
3974.07
-46602.2
46844.4
3742.65
-44265.9
44497.3
3520.7
-42044.8
42266.8
3308.37
-39935.9
40148.2
3102.89
-37930.2
38135.6
2908.78
-36027.6
36221.8
2721.81
-34218
34405
2542.13
-32496.9
32676.6
2371.33
-30864.1
31034.9
2206.63
-29311
29475.7
2051.05
-27834.5
27990.1
1901.81
-26431.7
26581
1759.01
-25098.3
25241.1
1622.77
-23829.9
23966.2
1493.16
-22625
22754.6
1370.28
-21479.3
21602.2
1252.76
-20389.8
20507.3
1142.12
-19353.7
19464.4
1035.55
-18368.1
18474.7
934.541
-17431.6
17532.6
840.591
-16542.6
16636.5
750.898
-15694.1
15783.8
665.514
-14888.9
14974.3
585.931
-14122.8
14202.3
512.179
-13395.7
13469.4
441.486
-12702
12772.7
376.764
-12043.2
12107.9
315.54
-11417.4
11478.7
259.307
-10822.1
10878.4
207.593
-10256.6
10308.3
160.49
-9719.54
9766.65
117.761
-9209.54
9252.27
80.249
-8726.49
8764
46.2325
-8269.3
8303.32
20.4076
-7835.8
7861.63
-5.2317
-7436.89
7462.53
-14.7059
-7039.41
7048.88
-32.859
-6736.16
6754.32
-19.3525
-6318.55
6305.04
-40.681
-6305.88
6327.21
-5629.66
5588.98
75066.3
-549134
71226.2
-521747
67714.2
-495623
64301.9
-470793
61091.7
-447184
58009.1
-424752
55106
-403448
52335.2
-383188
49703.7
-363930
47213.2
-345659
44842.5
-328289
42586.7
-311790
40463.3
-296119
38426.5
-281232
36506.6
-267084
34673.5
-253661
32942.4
-240890
31283.4
-228770
29711.4
-217272
28226.2
-206337
26827.8
-195964
25472.1
-186096
24203
-176730
22976.5
-167824
21821.9
-159392
20739
-151375
19698.6
-143757
18700.6
-136510
17744.9
-129648
16860.7
-123127
16018.6
-116946
15204.2
-111046
14417.3
-105457
13687
-100164
12984.2
-95122.6
12323.4
-90347.1
11690
-85808.1
11084.1
-81490.7
10501.2
-77388.9
9951.62
-73508.2
9425.17
-69814.8
8923.36
-66309.9
8444.8
-62980.2
7986.64
-59818.1
7549
-56814.6
7131.95
-53963.8
6734.16
-51255.1
6352.82
-48682.6
5989.52
-46238.9
5641.47
-43917.9
5310.26
-41713.6
4993.12
-39618.7
4691.62
-37628.7
4401.55
-35737.6
4124.48
-33941
3861.98
-32234.4
3609.84
-30612
3369.61
-29070.7
3139.95
-27604.8
2920.98
-26212.8
2712.79
-24890.1
2514.02
-23631.2
2326.19
-22437.2
2145.08
-21298.2
1973.63
-20218.4
1811.9
-19192
1658.52
-18214.7
1512.12
-17285.2
1372.74
-16403.2
1240.46
-15561.8
1116.73
-14765.2
1000.18
-14006.2
888.03
-13283.5
783.172
-12597.1
685.643
-11945.6
593.693
-11325.5
507.537
-10736
427.284
-10176.4
352.784
-9645.05
283.989
-9140.75
221.285
-8663.79
163.958
-8211.97
114.364
-7786.21
67.903
-7390.43
35.9266
-7007.44
-0.667699
-6699.57
-6.76447
-6312.45
-46.7892
-6265.86
-5676.45
102049
-543798
96913.6
-516612
92053.9
-490763
87412.3
-466151
83026.7
-442798
78844.8
-420570
74867.7
-399471
71095
-379415
67512.8
-360348
64106.4
-342253
60876
-325058
57806.6
-308721
54898.4
-293211
52121.8
-278455
49491.4
-264454
46992.5
-251162
44624.9
-238523
42388.6
-226534
40239.5
-215123
38206.9
-204304
36261.3
-194019
34432
-184266
32689.5
-174988
31048.5
-166183
29465
-157809
27968.2
-149878
26543.2
-142332
25204.8
-135172
23923.6
-128367
22699.5
-121903
21518
-115764
20422.6
-109951
19384.2
-104419
18373.6
-99153.4
17434.4
-94183.4
16522.9
-89435.6
15653.7
-84938.8
14829.6
-80666.7
14055.1
-76614.4
13308.3
-72761.4
12599.5
-69105.9
11922.8
-65633.2
11276.8
-62334.2
10663.1
-59204.4
10077.4
-56228.9
9518.21
-53404.6
8985.76
-50722.7
8477.19
-48174.1
7992.62
-45754.3
7529.22
-43454.5
7087.14
-41271.5
6666.47
-39198
6264.43
-37226.6
5882.58
-35355.7
5516.7
-33575.1
5168.33
-31886
4837.59
-30281.2
4520.24
-28753.4
4219.27
-27303.9
3933.31
-25926.8
3658.16
-24615
3398.19
-23371.2
3149.18
-22188.2
2915.5
-21064.5
2691.46
-19994.3
2477.14
-18977.7
2274.03
-18011.6
2082.19
-17093.3
1898.79
-16219.8
1726.74
-15389.8
1563.21
-14601.6
1406.87
-13849.9
1260.58
-13137.2
1122.96
-12459.5
991.401
-11814.1
867.938
-11202
752.34
-10620.4
643.748
-10067.8
542.255
-9543.55
447.87
-9046.37
360.363
-8576.28
279.555
-8131.16
206.939
-7713.59
139.471
-7322.97
85.6122
-6953.58
30.0734
-6644.03
5.21115
-6287.59
-50.8821
-6209.77
-5727.33
128835
-536982
122341
-510117
116168
-484590
110321
-460304
104734
-437211
99455.5
-415291
94441.1
-394456
89661.7
-374636
85146.6
-355833
80837.3
-337943
76748.3
-320969
72879.6
-304852
69172.4
-289503
65685.2
-274968
62359.3
-261128
59209.2
-248012
56205.4
-235519
53347.9
-223676
50651.1
-212426
48085.8
-201739
45637.1
-191570
43319.5
-181949
41118.5
-172787
39019.1
-164084
37036
-155826
35139.8
-147982
33345.1
-140538
31637.1
-133464
30015.8
-126746
28466.6
-120353
27003.9
-114301
25613
-108560
24279.4
-103085
23017.6
-97891.6
21812.9
-92978.7
20679.9
-88302.6
19589.4
-83848.4
18555.9
-79633.2
17570.9
-75629.3
16635.6
-71826.1
15742.8
-68213.2
14892.6
-64783
14085
-61526.6
13312.8
-58432.2
12578.9
-55495
11880.5
-52706.2
11213.3
-50055.5
10578.9
-47539.6
9972.96
-45148.4
9397.07
-42878.6
8848.38
-40722.8
8324.12
-38673.8
7825.83
-36728.3
7349.26
-34879.2
6897.41
-33123.2
6464.59
-31453.2
6052.33
-29869
5662.17
-28363.2
5288.42
-26930.1
4932.62
-25571
4596.25
-24278.6
4273.67
-23048.6
3967.79
-21882.3
3674.4
-20771.1
3397.82
-19717.8
3135.26
-18715.1
2885.34
-17761.7
2646.67
-16854.6
2422.15
-15995.3
2207.54
-15175.2
2004.32
-14398.4
1812.5
-13658
1629.33
-12954
1456.25
-12286.4
1294.1
-11651.9
1140.45
-11048.4
995.364
-10475.3
858.921
-9931.33
730.784
-9415.42
610.714
-8926.3
498.893
-8464.46
394.733
-8027.01
299.473
-7618.33
210.865
-7234.36
135.369
-6878.08
61.0823
-6569.75
16.9679
-6243.47
-54.6996
-6138.1
-5782.04
155256
-528724
147436
-502298
139984
-477138
132919
-453239
126220
-430512
119830
-408901
113764
-388390
108022
-368894
102559
-350370
97376.5
-332761
92458.6
-316051
87761.4
-300155
83328.7
-285071
79101.8
-270741
75095.2
-257121
71279.3
-244196
67668.8
-231908
64234.1
-220242
60960.5
-209153
57862.6
-198641
54925.5
-188633
52119.8
-179143
49460.2
-170127
46946.4
-161570
44549.2
-153428
42268.4
-145701
40103.9
-138373
38041
-131401
36079.8
-124784
34219.9
-118494
32461.5
-112543
30760.7
-106859
29175.6
-101500
27662.6
-96378.6
26207
-91523.1
24823.3
-86918.9
23526.1
-82551.1
22281.8
-78389
21099.2
-74446.7
19972.5
-70699.4
18900.1
-67140.8
17880.8
-63763.6
16910
-60555.9
15986.5
-57508.6
15105.8
-54614.3
14268.1
-51868.5
13470.5
-49257.9
12710.1
-46779.3
11987.1
-44425.4
11298.6
-42190.1
10641.8
-40066
10016.8
-38048.8
9420.76
-36132.3
8855.19
-34313.6
8314.43
-32582.5
7801.43
-30940.2
7311.95
-29379.5
6844.62
-27895.9
6402.4
-26487.9
5979.59
-25148.2
5577.71
-23876.7
5195.38
-22666.3
4831.23
-21518.2
4485.3
-20425.2
4156.21
-19388.7
3842.59
-18401.5
3545.89
-17465
3264.73
-16573.5
2994.9
-15725.5
2740.67
-14920.9
2499.23
-14157
2269.25
-13428.1
2053.5
-12738.3
1847.84
-12080.8
1653.16
-11457.3
1469.07
-10864.3
1295.49
-10301.7
1131.54
-9767.37
977.4
-9261.28
832.57
-8781.47
696.788
-8328.68
570.1
-7900.32
452.929
-7501.16
343.967
-7125.4
248.257
-6782.37
155.683
-6477.17
93.3127
-6181.1
7.33585
-6052.12
-5774.7
181280
-519087
172125
-493142
163442
-468454
155174
-444971
147335
-422672
139893
-401460
132820
-381317
126101
-362175
119706
-343975
113650
-326705
107889
-310290
102437
-294703
97234.9
-279869
92312.5
-265818
87625.3
-252434
83173.2
-239744
78941.5
-227676
74929.8
-216230
71123.5
-205346
67493
-195011
64053
-185193
60788.7
-175879
57685.2
-167024
54727.9
-158613
51916.6
-150617
49265.9
-143050
46717.2
-135825
44314.1
-128998
42027.5
-122498
39871.8
-116338
37788.6
-110460
35850.7
-104921
33970.5
-99620
32191.8
-94599.8
30514.4
-89845.7
28909.2
-85313.7
27376.2
-81018.1
25931.3
-76944.1
24549.7
-73065.2
23237.4
-69387
21989.8
-65893.3
20801.2
-62575
19670.2
-59424.8
18595.3
-56433.7
17572.1
-53591.2
16596.5
-50892.9
15669.8
-48331.2
14787.8
-45897.3
13947.7
-43585.2
13146.5
-41388.9
12385.9
-39305.4
11661.5
-37324.3
10970.5
-35441.3
10313
-33656.1
9689.01
-31958.5
9092.89
-30344.1
8526.13
-28812.7
7987.34
-27357.1
7473.71
-25974.3
6985.31
-24659.8
6519.31
-23410.8
6078.63
-22225.6
5657.6
-21097.1
5259.09
-20026.7
4877.49
-19007.1
4517.05
-18041.1
4172.17
-17120.1
3845.68
-16247
3536.19
-15416
3242.31
-14627.1
2961.28
-13876
2697.29
-13164.1
2446.16
-12487.2
2207.95
-11842.5
1981.57
-11230.9
1767.87
-10650.6
1565.76
-10099.6
1374.92
-9576.53
1194.86
-9081.22
1025.31
-8611.92
865.985
-8169.35
716.706
-7751.04
577.819
-7362.27
448.201
-6995.78
332.022
-6666.19
221.092
-6366.24
138.933
-6098.94
38.3843
-5951.57
-5736.32
206803
-508105
196346
-482686
186420
-458528
177012
-435564
168048
-413708
159555
-392967
151476
-373238
143810
-354509
136542
-336708
129614
-319776
123053
-303730
116803
-288452
110876
-273942
105244
-260186
99905.4
-247096
94817.3
-234656
89993.8
-222853
85405.3
-211642
81051.7
-200993
76918.3
-190877
73004.8
-181280
69267.3
-172141
65720.1
-163477
62348.6
-155242
59152.7
-147421
56102.9
-140000
53213.8
-132935
50470.7
-126255
47858.9
-119886
45378.2
-113857
43028.6
-108110
40780.8
-102673
38649.3
-97488.5
36634.1
-92584.6
34705.9
-87917.5
32879.3
-83487.1
31141
-79279.9
29482.4
-75285.5
27910.6
-71493.4
26415.5
-67891.9
24992.7
-64470.5
23639.3
-61221.6
22352.3
-58137.9
21127.4
-55208.8
19961.8
-52425.6
18854
-49785.1
17798.3
-47275.5
16794.6
-44893.6
15838.7
-42629.3
14930.7
-40480.9
14064.7
-38439.4
13242.3
-36501.9
12459.2
-34658.2
11714
-32910.9
11004
-31248.4
10329
-29669.1
9686.37
-28170.1
9074.67
-26745.4
8492.5
-25392.1
7939.91
-24107.2
7414.08
-22884.9
6912.2
-21723.7
6435.73
-20620.6
5983.26
-19574.2
5553.41
-18577.2
5141.96
-17629.6
4754.55
-16732.7
4384.18
-15876.6
4033.66
-15065.5
3698.82
-14292.2
3383.81
-13561
3081.72
-12862
2796.69
-12202.1
2525.86
-11571.7
2269.87
-10974.9
2027.12
-10407.8
1797.11
-9869.59
1579.84
-9359.26
1374.3
-8875.67
1180.42
-8418.04
997.783
-7986.71
826.21
-7579.47
665.576
-7201.64
515.517
-6845.72
378.647
-6529.32
248.873
-6236.47
146.204
-5996.27
31.1384
-5836.51
-5705.18
231782
-495797
220072
-470975
208949
-447406
198374
-424988
188344
-403679
178817
-383439
169761
-364183
161164
-345911
152994
-328538
145237
-312019
137864
-296356
130873
-281462
124237
-267305
117909
-253859
111906
-241092
106226
-228976
100811
-217438
95675
-206506
90789.1
-196107
86152.8
-186241
81736.7
-176863
77555.3
-167960
73579.3
-159501
69793.7
-151456
66213.2
-143841
62793.8
-136581
59564.5
-129706
56481.4
-123172
53559
-116964
50782.6
-111081
48137.6
-105465
45623.7
-100159
43241
-95105.8
40974.7
-90318.4
38810.3
-85753.1
36762.3
-81439
34814.5
-77332.1
32962.5
-73433.5
31200.6
-69731.5
29524.2
-66215.5
27932
-62878.2
26416.6
-59706.2
24976.6
-56697.9
23604.7
-53837
22302.4
-51123.3
21062.4
-48545.1
19881.9
-46095
18759.5
-43771.2
17693.6
-41563.5
16677.1
-39464.4
15711.6
-37473.9
14789.7
-35580.1
13916
-33784.4
13083.1
-32078.1
12291.2
-30456.5
11538.8
-28916.8
10821.8
-27453
10140
-26063.6
9490.75
-24742.8
8874
-23490.4
8286.92
-22297.9
7728.15
-21164.9
7197.69
-20090.2
6692.71
-19069.2
6211.85
-18096.3
5756.48
-17174.3
5322.41
-16298.7
4911.04
-15465.3
4518.19
-14672.6
4148
-13922
3793.57
-13206.5
3459.02
-12527.4
3140.19
-11883.3
2838.88
-11270.4
2552.62
-10688.6
2281.27
-10136.5
2024.25
-9612.56
1780.71
-9115.73
1550.57
-8645.53
1332.96
-8200.44
1127.67
-7781.42
934.32
-7386.12
752.586
-7019.91
582.163
-6675.3
425.068
-6372.23
276.774
-6088.17
152.905
-5872.41
23.7928
-5707.4
-5681.39
256118
-482177
243184
-458042
230896
-435118
219228
-413320
208150
-392601
197603
-372892
187617
-354197
178103
-336397
169076
-319511
160521
-303464
152364
-288200
144634
-273732
137288
-259959
130310
-246881
123685
-234467
117384
-222675
111407
-211461
105724
-200823
100335
-190718
95196.1
-181102
90336.2
-172003
85696.5
-163320
81306.3
-155110
77136.1
-147286
73156.5
-139861
69396.7
-132821
65812.7
-126122
62418.9
-119778
59171.5
-113716
56099.4
-108009
53188.1
-102554
50408.3
-97379.5
47759.8
-92457.3
45257.1
-87815.7
42885.7
-83381.7
40613.3
-79166.6
38460.4
-75179.1
36413.7
-71386.8
34468.8
-67786.6
32618.5
-64365.2
30859.7
-61119.5
29188.2
-58034.7
27596.5
-55106.2
26084.8
-52325.3
24645.8
-49684.3
23276.5
-47175.8
21977
-44795.4
20738.6
-42532.7
19561.2
-40386.1
18442.2
-38345.3
17377
-36408.7
16364.3
-34567.4
15399.8
-32820
14483.6
-31161.8
13611.3
-29584.2
12780.1
-28085.5
11991.4
-26664.3
11241
-25313.2
10527.5
-24029.3
9847.96
-22810.9
9202.5
-21652.4
8588.25
-20550.7
8003.81
-19505.7
7447.78
-18513.2
6921.53
-17570.1
6419.48
-16672.2
5941.58
-15820.8
5487.86
-15011.5
5058.29
-14243
4648.69
-13512.4
4260.42
-12818.2
3892.08
-12159.1
3540.93
-11532.2
3208.43
-10937.9
2893.22
-10373.4
2594.02
-9837.29
2310.61
-9329.15
2042.12
-8847.25
1787.81
-8391.22
1547.41
-7960.03
1320.2
-7554.2
1105.82
-7171.74
904.038
-6818.12
714.572
-6485.83
538.786
-6196.44
373.082
-5922.47
230.993
-5730.32
86.715
-5563.12
-5594.67
279811
-467305
265685
-443916
252262
-421695
239502
-400561
227392
-380490
215885
-361386
204954
-343265
194583
-326027
184714
-309641
175346
-294096
166464
-279318
157996
-265264
149970
-251933
142356
-239267
135110
-227222
128218
-215783
121694
-204936
115479
-194608
109587
-184826
103990
-175504
98656.7
-166671
93602.8
-158266
88798.6
-150306
84229.3
-142716
79909.3
-135541
75780
-128692
71870.6
-122213
68137
-116045
64623
-110202
61255.5
-104641
58063.5
-99361.5
55032.3
-94348.4
52161.8
-89586.8
49408.3
-85062.2
46800.7
-80774.1
44339.1
-76705
41986.8
-72826.9
39752.7
-69152.7
37626.4
-65660.3
35606.5
-62345.3
33685.6
-59198.6
31859.4
-56208.5
30123.4
-53370.3
28473.4
-50675.2
26903.4
-48114.3
25412
-45684.5
23992.1
-43375.5
22642
-41182.7
21357.6
-39101.7
20137.2
-37125
18975.3
-35246.8
17870.4
-33462.5
16820.9
-31770.5
15821.3
-30162.1
14870
-28632.9
13967.1
-27182.6
13108.2
-25805.5
12289.2
-24494.2
11512.8
-23252.9
10772
-22070.2
10068.2
-20948.6
9401.31
-19883.8
8765.73
-18870.2
8160.05
-17907.5
7585.68
-16995.7
7039.75
-16126.3
6520.88
-15301.9
6027.63
-14518.3
5558.6
-13774
5112.4
-13066.2
4688.97
-12394.8
4286.91
-11757
3906.2
-11151.5
3544.07
-10575.8
3200.33
-10029.7
2874.45
-9511.41
2565.16
-9019.86
2272.18
-8554.26
1994.54
-8113.58
1731.66
-7697.16
1482.8
-7305.34
1247.94
-6936.89
1026.29
-6596.47
817.687
-6277.23
622.918
-6001.67
439.669
-5739.22
279.566
-5570.21
118.232
-5401.79
-5476.44
302746
-451227
287472
-428642
272945
-407168
259153
-386769
246039
-367376
233589
-348935
221757
-331434
210515
-314785
199863
-298989
189713
-283946
180078
-269684
170945
-256130
162253
-243241
153989
-231003
146153
-219385
138713
-208344
131642
-197865
124924
-187890
118530
-178432
112474
-169448
106713
-160909
101245
-152798
96026.7
-145088
91102.3
-137792
86398.1
-130837
81943.5
-124237
77708.8
-117978
73694
-112030
69855.2
-106363
66221.4
-101007
62763.4
-95903.5
59481
-91066
56374.1
-86480
53413.5
-82101.5
50597.6
-77958.2
47914.7
-74022.1
45370.5
-70282.7
42951.9
-66734.1
40653
-63361.4
38469.3
-60161.6
36390.7
-57120
34417.1
-54234.9
32538.3
-51491.5
30752.9
-48889.7
29056.3
-46417.8
27442.9
-44071.1
25908.3
-41840.8
24449.6
-39723.9
23062.3
-37714.4
21742.3
-35804.9
20487.9
-33992.4
19295
-32269.6
18160.6
-30636.1
17080.5
-29082
16054.6
-27607
15078.5
-26206.6
14149.6
-24876.5
13269.1
-23613.7
12428.5
-22412.4
11630.7
-21272.3
10871.4
-20189.3
10149.1
-19161.6
9463.94
-18185
8812.91
-17256.5
8190.48
-16373.3
7602.19
-15538
7042.42
-14742.1
6509.77
-13985.6
6002.8
-13267
5522.86
-12586.3
5067.15
-11939.1
4634.24
-11324.1
4221.52
-10738.7
3830.7
-10184.9
3459.57
-9658.55
3107.53
-9159.37
2773.46
-8685.79
2456.65
-8237.45
2156.27
-7813.21
1871.63
-7412.51
1602.14
-7035.85
1347.07
-6681.81
1105.88
-6355.29
878.476
-6049.83
664.979
-5788.18
463.651
-5537.89
283.843
-5390.4
106.3
-5224.24
-5370.14
324894
-433957
308487
-412235
292915
-391596
278107
-371962
264035
-353304
250685
-335585
237983
-318732
225930
-302731
214466
-287526
203592
-273072
193248
-259340
183436
-246317
174109
-233915
165254
-222148
156841
-210972
148840
-200344
141237
-190262
134032
-180684
127179
-171580
120665
-162934
114475
-154718
108607
-146931
103034
-139515
97725.7
-132483
92681.4
-125793
87901.4
-119457
83356.3
-113433
79016.6
-107690
74926.1
-102273
71026.2
-97107.6
67316.9
-92194.2
63797.9
-87547
60440.1
-83122.2
57263.8
-78925.2
54241.1
-74935.5
51367.6
-71148.6
48638.8
-67553.9
46043.1
-64138.3
43575.9
-60894.3
41231.5
-57817.2
39002.5
-54891
36883
-52115.4
34871.6
-49480
32956.5
-46974.7
31134.9
-44596.2
29403.8
-42340
27758.9
-40195.9
26194.4
-38159.4
24707.3
-36227.3
23293.3
-34390.9
21946.6
-32645.8
20668.6
-30991.6
19452.2
-29419.7
18295.9
-27925.7
17196.7
-26507.8
16152
-25161.8
15157.2
-23881.8
14211
-22667.5
13312
-21513.3
12458.7
-20419
11646.7
-19377.3
10873.4
-18388.2
10138.6
-17450.2
9439.59
-16557.4
8777.57
-15711.3
8145.6
-14906
7545.08
-14141.6
6975.89
-13416.4
6435.24
-12726.4
5920.32
-12071.4
5431.09
-11449.9
4966.67
-10859.7
4526.44
-10298.5
4107.77
-9766.26
3710.46
-9261.25
3333.13
-8782.03
2975.13
-8327.8
2635.5
-7897.81
2313.34
-7491.05
2007.83
-7107
1718.25
-6746.27
1444.07
-6407.63
1184.35
-6095.57
938.772
-5804.25
706.923
-5556.33
488.382
-5319.35
288.012
-5190.04
94.3667
-5030.6
-5275.78
346198
-415583
328732
-394768
312115
-374979
296350
-356197
281365
-338319
267130
-321350
253602
-305204
240767
-289896
228551
-275309
216968
-261489
205961
-248332
195483
-235840
185551
-223983
176120
-212717
167146
-201998
158642
-191840
150552
-182171
142858
-172991
135548
-164269
128620
-156006
122030
-148129
115764
-140665
109821
-133572
104172
-126835
98802.7
-120423
93697.5
-114352
88856.5
-108592
84265
-103099
79879.1
-97886.9
75713.2
-92941.7
71781.8
-88262.8
68026.4
-83791.6
64455.6
-79551.4
61065
-75534.6
57844.3
-71714.8
54784.6
-68088.8
51875.6
-64645
49110
-61372.7
46484.9
-58269.1
43985.5
-55317.8
41613.3
-52518.8
39356.6
-49858.7
37211.1
-47334.5
35172.2
-44935.8
33235.6
-42659.6
31392.6
-40497
29640.3
-38443.6
27975.7
-36494.8
26391.5
-34643.2
24885
-32884.4
23454.5
-31215.3
22094.3
-29631.4
20800.1
-28125.5
19569
-26694.5
18399.5
-25338.4
17287.3
-24049.6
16229.6
-22824
15224.8
-21662.7
14268.6
-20557.2
13358.3
-19508.7
12493.8
-18512.8
11673.6
-17568
10892
-16668.6
10149.1
-15814.5
9443.28
-15005.5
8773.21
-14235.9
8135.98
-13504.4
7530.23
-12810.7
6954.48
-12150.6
6407.3
-11524.2
5887.26
-10929.8
5393.88
-10366.3
4925.03
-9829.68
4479.73
-9320.96
4056.93
-8838.45
3655.47
-8380.58
3274.64
-7946.96
2913.03
-7536.2
2569.98
-7148
2244.67
-6781.7
1936.05
-6437.64
1643.54
-6115.13
1366.27
-5818.29
1104.15
-5542.12
856.201
-5308.38
622.417
-5085.57
406.691
-4974.31
199.118
-4823.02
-5076.66
366584
-396106
348088
-376273
330515
-357405
313808
-339490
297939
-322450
282865
-306276
268556
-290895
254940
-276280
242030
-262400
229739
-249198
218082
-236675
207014
-224772
196492
-213460
186485
-202710
176993
-192506
167959
-182806
159395
-173608
151258
-164854
143534
-156545
136177
-148650
129203
-141154
122568
-134030
116270
-127275
110281
-120846
104601
-114743
99200.1
-108951
94048.9
-103441
89176.7
-98226.5
84553.9
-93264.2
80151.3
-88539.1
75954.3
-84065.7
71984.4
-79821.8
68212.5
-75779.5
64623.8
-71945.9
61213.9
-68304.9
57972.5
-64847.4
54892.2
-61564.7
51965.6
-58446.2
49182.5
-55486
46538.5
-52673.8
44024.7
-50005
41636.7
-47470.7
39365.8
-45063.6
37207.6
-42777.5
35154.7
-40606.7
33205.6
-38548
31351.7
-36589.7
29588.6
-34731.6
27911.9
-32966.4
26320
-31292.5
24805.8
-29701.1
23365
-28190.6
21996
-26756.5
20695.9
-25394.5
19459
-24101.4
18281
-22871.6
17163.1
-21706.2
16098.4
-20598
15088.2
-19547
14128.1
-18548.6
13213.9
-17598.6
12344.1
-16698.3
11518.7
-15843.2
10734.8
-15030.6
9988.15
-14258.9
9278.71
-13526.5
8605.06
-12830.7
7964.31
-12169.9
7356.4
-11542.7
6778.52
-10946.3
6229.76
-10381.1
5707.34
-9843.9
5211.58
-9333.92
4740.89
-8850.27
4293.85
-8391.41
3869.44
-7956.16
3466.34
-7543.86
3083.9
-7153.77
2720.73
-6784.83
2376.04
-6437.02
2049.02
-6110.62
1738.76
-5804.87
1444.12
-5523.65
1165.01
-5263.01
900.092
-5043.47
649.627
-4835.1
415.837
-4740.52
190.356
-4597.54
-4886.31
386025
-375628
366529
-356776
348029
-338905
330439
-321900
313731
-305742
297861
-290406
282786
-275820
268462
-261955
254845
-248783
241920
-236273
229643
-224398
217970
-213100
206887
-202377
196363
-192186
186355
-182498
176862
-173313
167826
-164572
159246
-156274
151108
-148406
143367
-140909
136009
-133796
129033
-127054
122395
-120637
116096
-114547
110106
-108752
104409
-103254
99020.9
-98052.6
93882.6
-93088.1
88993.9
-88375.5
84354.9
-83900
79957.9
-79668.7
75767.9
-75631.7
71790.5
-71802.1
68009.7
-68165.1
64418
-64713.2
61005.2
-61434.6
57760.9
-58320.4
54677.8
-55363.1
51748.5
-52556.7
48964.2
-49889.5
46319
-47359.8
43802.8
-44954.4
41412.4
-42673.2
39139.2
-40504.3
36980.2
-38447.7
34926.6
-36494.4
32974.1
-34637.2
31119.7
-32877.2
29357.6
-31204.3
27680.6
-29615.5
26087.1
-28107.6
24571.4
-26674.8
23130.5
-25315.6
21761.5
-24025.5
20458.7
-22798.6
19222
-21634.9
18045.7
-20529.9
16926.8
-19479.2
15863.9
-18484.1
14852.7
-17537.4
13891.8
-16637.6
12978.2
-15784.6
12110.4
-14975.5
11285.7
-14205.9
10501.1
-13474.3
9755.29
-12780.7
9046.67
-12122.1
8373.77
-11497
7733.88
-10902.8
7125.74
-10338.2
6547.92
-9803.25
5999.24
-9295.22
5478.23
-8812.91
4983.2
-8355.24
4513.1
-7921.31
4066.72
-7509.79
3642.93
-7120.07
3240.37
-6751.21
2858.26
-6402.72
2495.55
-6074.3
2150.97
-5766.04
1823.93
-5477.82
1513.06
-5212.79
1218.01
-4967.96
936.934
-4762.4
670.584
-4568.75
417.973
-4487.91
176.179
-4355.75
-4710.13
404431
-354136
384038
-336383
364641
-319508
346227
-303486
328724
-288240
312089
-273771
296292
-260024
281290
-246953
267024
-234517
253495
-222744
240613
-211517
228394
-200881
216780
-190762
205754
-181160
195273
-172017
185323
-163362
175858
-155107
166880
-147296
158342
-139869
150232
-132799
142534
-126098
135218
-119738
128256
-113675
121661
-107952
115389
-102481
109426
-97291.7
103758
-92383.7
98367.9
-87698.4
93257.2
-83264.9
88413.8
-79056.6
83792.2
-75047.1
79405.5
-71244.9
75237.4
-67634.1
71277.6
-64205.4
67514.5
-60950
63937.5
-57857.7
60539.5
-54922.3
57310.1
-52133.6
54240.4
-49487
51324.6
-46973.7
48552.5
-44587.7
45918
-42320
43412.6
-40167.7
41034.5
-38126.3
38772.3
-36185.5
36620
-34342.1
34577.6
-32594.8
32634.8
-30934.5
30787.4
-29356.9
29032.3
-27860.4
27362.4
-26437.7
25777.5
-25090
24269
-23807.1
22835.4
-22591.9
21472.4
-21435.6
20177.1
-20339.5
18945.1
-19297.8
17774.9
-18309
16662.2
-17371.4
15602.7
-16478
14597.9
-15632.7
13643.2
-14830
12733.2
-14065.4
11869
-13341.7
11049.3
-12654.6
10269.8
-12001.1
9527.65
-11379.9
8822.77
-10792.2
8153.73
-10233.8
7518.37
-9702.8
6914.22
-9199.1
6340.23
-8721.23
5794.83
-8267.51
5277.09
-7837.5
4785.15
-7429.36
4317.96
-7042.6
3874.31
-6676.42
3453.03
-6329.93
3053.01
-6002.7
2673.19
-5694.48
2312.3
-5405.15
1969.42
-5134.95
1643.53
-4886.89
1333.84
-4658.27
1038.33
-4466.89
758.029
-4288.45
489.894
-4219.77
234.477
-4100.33
-4475.65
421819
-331760
400529
-315092
380322
-299302
361099
-284263
342861
-270001
325519
-256429
309030
-243535
293380
-231303
278524
-219661
264390
-208610
250978
-198105
238228
-188131
226112
-178646
214599
-169648
203676
-161094
193297
-152984
183434
-145244
174071
-137933
165165
-130963
156715
-124349
148677
-118060
141036
-112097
133792
-106431
126902
-101061
120349
-95928.5
114150
-91092
108230
-86463.6
102618
-82086.8
97291.3
-77938.3
92217.4
-73982.7
87403.4
-70233.2
82827.4
-66668.9
78481.8
-63288.5
74351.9
-60075.5
70426.1
-57024.2
66696.8
-54128.4
63152.4
-51377.9
59785.5
-48766.7
56584.3
-46285.8
53542.9
-43932.3
50651.1
-41695.8
47904.4
-39573.3
45294.1
-37557.4
42811.3
-35643.5
40451.7
-33825.8
38210.8
-32101.3
36079.9
-30463.9
34053.2
-28907.8
32127.7
-27431.4
30297.5
-26030.3
28559.8
-24699.9
26904.4
-23434.6
25334.1
-22236.9
23838.9
-21096.7
22418.6
-20015.4
21068.9
-18989.9
19785.5
-18014.4
18565.5
-17088.9
17404.5
-16210.4
16303.9
-15377.4
15256.6
-14585.4
14259.6
-13833
13314.3
-13120.1
12413.7
-12441.1
11558.9
-11799.8
10745.8
-11188.1
9974.32
-10608.4
9240.15
-10058
8542.44
-9536.1
7879.92
-9040.27
7250.49
-8569.68
6652.39
-8123.13
6084.56
-7699.67
5544.87
-7297.81
5032.39
-6916.88
4545.64
-6555.86
4083.28
-6214.06
3644.25
-5890.9
3227.27
-5585.73
2830.92
-5298.12
2454.59
-5028.82
2096.71
-4777.07
1756.2
-4546.38
1432.41
-4334.49
1122.85
-4157.32
828.705
-3994.31
545.351
-3936.42
275.322
-3830.3
-4200.33
438071
-308487
415986
-293007
394971
-278287
375027
-264319
356068
-251041
338063
-238425
320956
-226427
304702
-215049
289257
-204217
274578
-193931
260650
-184176
247399
-174880
234825
-166072
222885
-157707
211533
-149742
200741
-142192
190509
-135011
180762
-128186
171516
-121717
162726
-115559
154393
-109726
146471
-104176
138932
-98891.9
131761
-93889.7
124971
-89139.4
118506
-84626.6
112379
-80336.1
106554
-76262.2
101009
-72393
95745.3
-68719.5
90743.5
-65231.3
85992.8
-61918.3
81477.1
-58772.8
77186.2
-55784.5
73109.4
-52947.4
69236.7
-50255.7
65554.8
-47696
62056.3
-45268.2
58732.4
-42961.9
55572.8
-40772.7
52570.2
-38693.2
49717.2
-36720.3
47005
-34845.2
44427.7
-33066.3
41979.5
-31377.7
39651.7
-29773.4
37438.3
-28250.5
35334.9
-26804.4
33335.8
-25432.2
31436.4
-24130.9
29629.6
-22893.2
27913.9
-21718.8
26280.5
-20603.5
24729.4
-19545.6
23256.3
-18542.2
21853.9
-17587.5
20522.1
-16682.7
19255.3
-15822.1
18053.2
-15008.4
16908.8
-14233
15820.6
-13497.2
14787.1
-12799.5
13804
-12137
12872.6
-11509.6
11984.4
-10911.7
11140.8
-10344.4
10340.2
-9807.81
9579.26
-9297.06
8855.8
-8812.63
8168.47
-8352.94
7515.5
-7916.71
6895.2
-7502.83
6305.92
-7110.4
5746.21
-6738.1
5214.44
-6385.11
4709.53
-6050.95
4230
-5734.53
3774.35
-5435.25
3341.48
-5152.85
2930.44
-4887.09
2539.44
-4637.82
2167.78
-4405.42
1813.72
-4192.31
1476.48
-3997.25
1153.5
-3834.35
845.364
-3686.17
545.605
-3636.66
259.686
-3544.39
-3940.64
453217
-284434
430338
-270128
408631
-256580
387996
-243684
368374
-231419
349752
-219802
332056
-208731
315227
-198221
299253
-188242
284087
-178765
269658
-169747
255965
-161187
242963
-153070
230595
-145339
218845
-137992
207684
-131031
197083
-124410
187026
-118130
177455
-112146
168370
-106473
159740
-101097
151523
-95958.5
143747
-91116.1
136339
-86481.7
129314
-82113.8
122626
-77939.1
116276
-73985.4
110243
-70229
104511
-66661.1
99065.4
-63274.2
93892
-60057.9
88975.6
-57001.9
84303.1
-54100.2
79865.4
-51346.9
75648.1
-48730.1
71639.3
-46246.9
67831.6
-43888.3
64213.3
-41649.8
60774
-39522.6
57505
-37503.7
54400.3
-35588.5
51448.2
-33768.3
48642.9
-32039.9
45977
-30400.4
43443.1
-28843.8
41034.1
-27364.3
38745.4
-25961.8
36571.2
-24630.2
34504.2
-23365.3
32538.5
-22165.3
30669.9
-21024.5
28895.3
-19944.2
27207.4
-18915.6
25604.8
-17943
24078.8
-17016.2
22630.8
-16139.4
21252.1
-15304
19944.1
-14514.1
18699.6
-13763.9
17515.8
-13049.1
16392.4
-12373.8
15325.1
-11732.3
14309.8
-11121.7
13343.5
-10543.3
12427.5
-9995.63
11556.4
-9473.31
10727.8
-8979.3
9940.97
-8510.19
9193.46
-8065.11
8483.12
-7642.61
7808.36
-7241.96
7167.4
-6861.87
6558.36
-6501.36
5979.89
-6159.63
5430.52
-5835.73
4908.6
-5529.04
4412.93
-5238.85
3942.1
-4964.42
3494.74
-4705.49
3069.56
-4461.91
2665.41
-4233.67
2280.99
-4021
1914.78
-3826.1
1565.68
-3648.15
1230.85
-3499.51
911.112
-3366.43
597.886
-3323.43
299.264
-3245.76
-3641.38
467154
-259646
443598
-246572
421200
-234183
399932
-222416
379737
-211224
360526
-200591
342285
-190491
324956
-180892
308495
-171781
292844
-163114
277987
-154890
263881
-147081
250452
-139642
237715
-132602
225611
-125889
214111
-119530
203200
-113498
192803
-107733
182952
-102294
173585
-97107.3
164676
-92187.3
156237
-87519.5
148195
-83074.3
140580
-78866.5
133315
-74848.8
126429
-71053.5
119884
-67440.9
113666
-64010.9
107760
-60754.6
102147
-57661.6
96812.4
-54723.1
91744.9
-51934.4
86930.3
-49285.6
82355.1
-46771.6
78008.9
-44384
73877.1
-42115.2
69951
-39962.1
66220.1
-37918.9
62675.7
-35978.2
59308.9
-34136.9
56106.5
-32386.2
53064.2
-30725.9
50173
-29148.7
47425.7
-27653.1
44813.6
-26231.7
42333.5
-24884.3
39973.9
-23602.1
37731.7
-22388.1
35601.2
-21234.8
33576.5
-20140.6
31651.8
-19099.7
29821.2
-18113.6
28084.6
-17179.1
26430.5
-16288.9
24860.3
-15446
23366.7
-14645.9
21948.3
-13885.6
20599.2
-13165
19316.5
-12481.2
18100.1
-11832.7
16941.6
-11215.2
15840.7
-10631.4
14794.6
-10075.6
13801.8
-9550.49
12855.7
-9049.6
11958.7
-8576.28
11105.8
-8126.46
10295.4
-7699.78
9525.41
-7295.09
8793.88
-6911.08
8098.8
-6546.87
7438.54
-6201.6
6811.35
-5874.17
6215.47
-5563.76
5649.67
-5269.93
5112.07
-4991.43
4601.41
-4728.19
4116.3
-4479.31
3655.45
-4244.64
3217.31
-4023.76
2800.84
-3817.21
2404.43
-3624.59
2026.58
-3448.24
1666.2
-3287.77