/*--------------------------------*- C++ -*----------------------------------*\
  =========                 |
  \\      /  F ield         | OpenFOAM: The Open Source CFD Toolbox
   \\    /   O peration     | Website:  https://openfoam.org
    \\  /    A nd           | Version:  11
     \\/     M anipulation  |
\*---------------------------------------------------------------------------*/
FoamFile
{
    format      ascii;
    class       volVectorField;
    location    "250";
    object      U;
}
// * * * * * * * * * * * * * * * * * * * * * * * * * * * * * * * * * * * * * //

dimensions      [0 1 -1 0 0 0 0];

internalField   nonuniform List<vector> 
31595
(
(7.33737 -0.0275504 -4.34992e-20)
(7.35493 -0.0185259 3.4255e-20)
(7.3454 -0.018666 8.65568e-20)
(7.35013 -0.0191469 9.34651e-20)
(7.3461 -0.0189916 0)
(7.34699 -0.0188428 0)
(7.34416 -0.0188772 0)
(7.34351 -0.0187598 8.02342e-20)
(7.34118 -0.0186752 4.0563e-21)
(7.33975 -0.0185232 0)
(7.33757 -0.0183649 0)
(7.33573 -0.0181549 6.18656e-20)
(7.33356 -0.0179253 -6.51368e-20)
(7.3315 -0.0176553 7.58508e-20)
(7.32927 -0.0173602 -7.98613e-20)
(7.32707 -0.0170316 8.9833e-20)
(7.32479 -0.0166776 0)
(7.32249 -0.016296 -1.11823e-19)
(7.32016 -0.0158918 2.37386e-19)
(7.31781 -0.0154664 -6.731e-20)
(7.31543 -0.0150244 7.08667e-20)
(7.31305 -0.0145695 0)
(7.31065 -0.0141074 0)
(7.30826 -0.0136439 9.60221e-20)
(7.30587 -0.0131866 -4.87935e-20)
(7.3035 -0.0127441 1.83642e-21)
(7.30115 -0.0123263 -1.20207e-19)
(7.29882 -0.0119448 -6.7084e-20)
(7.29652 -0.011613 1.43312e-19)
(7.29427 -0.0113459 -1.54013e-19)
(7.29206 -0.0111607 0)
(7.2899 -0.0110767 -4.5298e-20)
(7.2878 -0.0111151 4.94765e-20)
(7.28577 -0.0112997 -5.20929e-20)
(7.2838 -0.0116564 5.65493e-20)
(7.28191 -0.0122137 -6.15362e-20)
(7.28008 -0.0130023 3.15891e-20)
(7.27833 -0.0140551 1.05442e-19)
(7.27664 -0.0154075 0)
(7.27502 -0.0170972 -4.05255e-20)
(7.27345 -0.0191637 8.51741e-20)
(7.27194 -0.0216488 0)
(7.27046 -0.0245964 0)
(7.26901 -0.0280518 -2.70316e-20)
(7.26757 -0.0320624 1.12619e-19)
(7.26612 -0.0366774 0)
(7.26463 -0.0419475 -3.20981e-20)
(7.2631 -0.0479255 6.68708e-20)
(7.26148 -0.0546658 -3.66619e-20)
(7.25975 -0.0622246 3.76234e-20)
(7.25789 -0.0706607 -1.06511e-19)
(7.25585 -0.0800349 1.92543e-20)
(7.25361 -0.0904113 -7.42427e-20)
(7.25113 -0.101856 1.0556e-19)
(7.24836 -0.114441 -2.57379e-20)
(7.24527 -0.128241 -5.80487e-20)
(7.24181 -0.143335 -3.29432e-20)
(7.23794 -0.159809 -2.17274e-20)
(7.23361 -0.177755 -4.03023e-20)
(7.22877 -0.197272 6.48774e-20)
(7.22337 -0.218471 -1.97333e-21)
(7.21735 -0.24147 2.67566e-20)
(7.21066 -0.266399 -2.7367e-21)
(7.20322 -0.293405 -1.26779e-20)
(7.19499 -0.322648 2.01425e-20)
(7.18589 -0.354307 -7.62577e-20)
(7.17585 -0.388584 -2.38734e-20)
(7.1648 -0.425709 2.07718e-20)
(7.15265 -0.465938 7.9675e-20)
(7.13932 -0.509568 4.42249e-21)
(7.12473 -0.556934 -4.45028e-20)
(7.10879 -0.608425 8.93829e-22)
(7.0914 -0.664502 4.04006e-20)
(7.07247 -0.725664 0)
(7.05193 -0.79261 5.15067e-20)
(7.02966 -0.865868 0)
(7.00564 -0.946824 2.66845e-20)
(6.97976 -1.03533 0)
(6.95208 -1.13542 0)
(6.92279 -1.24249 0)
(6.89124 -1.37191 4.58893e-20)
(6.86089 -1.49776 2.03815e-20)
(6.82312 -1.68095 -3.20939e-20)
(6.80435 -1.81201 -2.65475e-20)
(6.74381 -2.10925 1.17737e-20)
(6.79077 -2.20029 3.82728e-21)
(6.63417 -2.7339 5.76429e-21)
(7.0055 -2.75644 2.61772e-21)
(6.42701 -3.7821 -2.87006e-21)
(7.34692 -0.0240926 1.77066e-19)
(7.34988 -0.0182177 8.28769e-20)
(7.3492 -0.0166583 6.61139e-20)
(7.34842 -0.0175948 -2.73014e-19)
(7.34739 -0.0173467 0)
(7.34631 -0.0172013 0)
(7.34478 -0.0171454 1.32524e-19)
(7.34327 -0.0170567 0)
(7.34153 -0.0169122 0)
(7.33975 -0.0167541 -1.85302e-19)
(7.33784 -0.0165557 -3.12763e-19)
(7.33587 -0.0163277 2.2662e-19)
(7.33383 -0.0160642 1.26993e-19)
(7.33173 -0.0157709 2.85219e-19)
(7.32957 -0.015446 -1.52368e-19)
(7.32737 -0.0150931 -8.63526e-20)
(7.32513 -0.0147133 9.69652e-20)
(7.32285 -0.0143095 -3.09678e-19)
(7.32054 -0.0138844 2.01089e-21)
(7.3182 -0.0134416 -2.48403e-19)
(7.31584 -0.0129852 0)
(7.31346 -0.01252 0)
(7.31107 -0.0120516 0)
(7.30868 -0.0115869 0)
(7.30628 -0.0111333 1.95697e-19)
(7.30389 -0.0106999 0)
(7.3015 -0.0102969 2.32799e-19)
(7.29913 -0.00993599 0)
(7.29678 -0.00963046 1.37101e-19)
(7.29445 -0.0093953 7.45792e-20)
(7.29215 -0.00924736 -8.18032e-20)
(7.28989 -0.00920543 8.49463e-20)
(7.28767 -0.00929021 9.31477e-20)
(7.28548 -0.00952457 -1.03102e-19)
(7.28334 -0.00993349 1.08566e-19)
(7.28124 -0.0105441 -5.98392e-20)
(7.27919 -0.0113856 1.2635e-19)
(7.27717 -0.0124897 -6.80365e-20)
(7.27519 -0.0138899 0)
(7.27324 -0.0156218 0)
(7.27132 -0.0177231 -1.71528e-19)
(7.26941 -0.0202337 -2.01818e-21)
(7.2675 -0.0231951 0)
(7.26557 -0.0266508 1.06576e-19)
(7.26362 -0.0306461 -1.12924e-19)
(7.26162 -0.035228 -5.9761e-20)
(7.25955 -0.0404455 0)
(7.25738 -0.0463494 0)
(7.25509 -0.0529924 0)
(7.25265 -0.0604295 3.89e-20)
(7.25003 -0.0687177 4.1786e-20)
(7.2472 -0.0779171 4.49453e-20)
(7.24411 -0.0880902 4.84175e-20)
(7.24074 -0.0993031 -5.22454e-20)
(7.23704 -0.111626 3.17061e-20)
(7.23297 -0.125133 -9.84285e-22)
(7.22849 -0.139904 6.99888e-20)
(7.22354 -0.156024 -4.02019e-20)
(7.21808 -0.173585 3.64943e-20)
(7.21206 -0.192687 -4.46225e-20)
(7.20542 -0.21344 -2.35587e-20)
(7.19809 -0.235963 -8.53265e-20)
(7.19003 -0.260388 2.85025e-20)
(7.18116 -0.286862 -3.43697e-20)
(7.17141 -0.315547 1.55795e-21)
(7.16072 -0.346626 1.24462e-19)
(7.14899 -0.380303 -4.88708e-20)
(7.13615 -0.41681 1.01773e-19)
(7.12212 -0.45641 -7.88085e-20)
(7.10678 -0.499408 3.65592e-20)
(7.09006 -0.546144 -3.61489e-20)
(7.07184 -0.59702 3.824e-20)
(7.05201 -0.65251 -6.31915e-20)
(7.03048 -0.713136 5.10516e-20)
(7.00712 -0.7796 -2.39755e-20)
(6.98183 -0.852512 0)
(6.95452 -0.933174 7.25675e-20)
(6.92511 -1.02176 8.06665e-20)
(6.89353 -1.12181 8.92116e-20)
(6.86005 -1.22997 2.3087e-20)
(6.82394 -1.35945 -9.49605e-20)
(6.7883 -1.48886 -3.20957e-20)
(6.7459 -1.67147 -6.12537e-20)
(6.71904 -1.81153 8.01459e-20)
(6.65653 -2.10703 2.88884e-20)
(6.68867 -2.21425 -5.40912e-20)
(6.53667 -2.74955 -6.84932e-21)
(6.86291 -2.7782 -2.08313e-20)
(6.3088 -3.83241 -1.91952e-20)
(7.34847 -0.0202074 -1.36574e-19)
(7.34996 -0.01674 -1.31686e-19)
(7.34972 -0.0149413 1.5807e-19)
(7.34865 -0.0157781 1.03123e-20)
(7.34758 -0.015724 -2.08017e-19)
(7.34643 -0.0155368 2.19007e-19)
(7.34495 -0.0154649 2.58249e-19)
(7.3434 -0.0153615 -1.38753e-19)
(7.3417 -0.0152 0)
(7.33993 -0.0150133 1.7879e-19)
(7.33805 -0.0147906 1.99076e-19)
(7.3361 -0.0145339 -1.10526e-19)
(7.33409 -0.0142424 -1.22541e-19)
(7.33201 -0.0139196 -1.39646e-19)
(7.32988 -0.0135661 1.45818e-19)
(7.3277 -0.0131845 0)
(7.32548 -0.0127771 1.85506e-19)
(7.32322 -0.0123469 2.03527e-19)
(7.32093 -0.0118973 0)
(7.3186 -0.011432 -1.18604e-19)
(7.31625 -0.0109557 0)
(7.31388 -0.0104735 -1.4374e-19)
(7.31149 -0.00999154 0)
(7.30908 -0.00951661 3.47652e-19)
(7.30666 -0.00905679 -3.69961e-19)
(7.30424 -0.00862109 -4.0655e-19)
(7.30182 -0.00821994 -2.25837e-19)
(7.2994 -0.00786506 1.19753e-19)
(7.29699 -0.00756964 -1.32442e-19)
(7.29458 -0.00734846 0)
(7.29219 -0.00721815 0)
(7.28982 -0.00719687 -8.56007e-20)
(7.28746 -0.00730472 1.80403e-19)
(7.28512 -0.00756392 9.75512e-20)
(7.2828 -0.00799825 0)
(7.2805 -0.00863401 0)
(7.27822 -0.00949912 -1.26042e-19)
(7.27594 -0.0106238 1.32762e-19)
(7.27368 -0.0120398 -7.32467e-20)
(7.27141 -0.0137815 3.13528e-19)
(7.26914 -0.0158848 1.69908e-19)
(7.26684 -0.0183876 -2.07506e-22)
(7.26451 -0.0213298 -9.88761e-20)
(7.26213 -0.024753 3.464e-21)
(7.25968 -0.0287007 1.10987e-19)
(7.25715 -0.0332182 -1.24362e-19)
(7.25451 -0.0383529 6.65408e-20)
(7.25173 -0.0441539 2.53954e-21)
(7.24879 -0.0506725 0)
(7.24566 -0.0579622 -8.52209e-20)
(7.24231 -0.0660791 -9.24554e-20)
(7.2387 -0.075082 1.00439e-19)
(7.2348 -0.0850327 -5.56417e-20)
(7.23056 -0.0959962 -1.14923e-19)
(7.22595 -0.108042 1.56492e-21)
(7.22093 -0.121245 6.95146e-20)
(7.21543 -0.135682 -7.33321e-20)
(7.20943 -0.151441 -4.17066e-20)
(7.20285 -0.168612 1.34777e-19)
(7.19566 -0.187296 4.47999e-20)
(7.18778 -0.207604 5.32441e-20)
(7.17916 -0.229654 5.68457e-20)
(7.16973 -0.253581 -6.98269e-20)
(7.15942 -0.279532 0)
(7.14815 -0.30767 0)
(7.13585 -0.338182 -1.85054e-19)
(7.12241 -0.371276 -5.73877e-20)
(7.10777 -0.407185 0)
(7.09181 -0.446179 0)
(7.07443 -0.488565 -6.59262e-20)
(7.05552 -0.534695 0)
(7.03495 -0.584984 -1.38029e-19)
(7.01261 -0.63991 4.7778e-20)
(6.98837 -0.700018 4.98776e-21)
(6.96208 -0.766023 -1.5655e-19)
(6.93362 -0.838598 3.34448e-20)
(6.90284 -0.918994 -1.13783e-19)
(6.86968 -1.00763 -1.21326e-19)
(6.83395 -1.10768 -8.82206e-20)
(6.79594 -1.21679 1.12106e-19)
(6.75486 -1.34648 -1.22937e-19)
(6.71356 -1.47898 5.83338e-20)
(6.66553 -1.66153 6.09357e-20)
(6.63073 -1.80936 -1.6213e-19)
(6.56382 -2.10411 1.80574e-20)
(6.58225 -2.22646 2.63837e-20)
(6.43259 -2.76392 7.90048e-21)
(6.72418 -2.79953 8.01981e-20)
(6.23147 -3.89184 3.25771e-20)
(7.34956 -0.0169018 -1.26831e-19)
(7.35 -0.0149656 -1.36203e-19)
(7.35006 -0.0132519 -1.43119e-19)
(7.34885 -0.0139851 1.77641e-19)
(7.34776 -0.0140834 7.15207e-21)
(7.34655 -0.0138995 0)
(7.34512 -0.0138113 7.69062e-21)
(7.34355 -0.0136953 -1.34792e-19)
(7.34189 -0.0135188 1.49626e-19)
(7.34012 -0.0133052 0)
(7.33827 -0.0130568 1.95984e-19)
(7.33635 -0.0127709 -2.06358e-19)
(7.33436 -0.0124499 -2.40512e-19)
(7.33231 -0.0120961 1.23033e-19)
(7.3302 -0.0117117 0)
(7.32805 -0.0112992 0)
(7.32585 -0.0108615 -1.73042e-19)
(7.32361 -0.0104019 -1.92312e-19)
(7.32133 -0.00992401 2.09248e-19)
(7.31901 -0.0094322 4.67782e-19)
(7.31667 -0.00893128 3.61854e-21)
(7.3143 -0.00842668 -2.78231e-19)
(7.3119 -0.0079247 -5.75467e-21)
(7.30948 -0.00743255 -3.60034e-21)
(7.30705 -0.00695835 1.34979e-21)
(7.3046 -0.00651132 1.9836e-19)
(7.30213 -0.00610176 0)
(7.29966 -0.00574142 1.1939e-19)
(7.29718 -0.00544332 -2.55595e-19)
(7.2947 -0.00522215 -1.4306e-19)
(7.29222 -0.00509388 -4.61137e-21)
(7.28973 -0.00507622 -2.38386e-21)
(7.28724 -0.00518875 -1.77416e-19)
(7.28475 -0.00545277 0)
(7.28225 -0.00589124 0)
(7.27975 -0.00652924 -1.14461e-19)
(7.27724 -0.00739359 -2.19497e-21)
(7.27472 -0.00851296 0)
(7.27217 -0.00991799 0)
(7.26959 -0.0116413 -1.52932e-19)
(7.26697 -0.0137171 -8.25169e-20)
(7.2643 -0.0161818 1.8252e-19)
(7.26156 -0.0190733 1.94856e-19)
(7.25874 -0.0224317 -1.00779e-19)
(7.25581 -0.0262986 2.31493e-19)
(7.25276 -0.0307177 -8.49202e-22)
(7.24957 -0.0357346 0)
(7.2462 -0.0413969 -7.06934e-20)
(7.24263 -0.0477545 1.60905e-19)
(7.23883 -0.0548593 1.69622e-19)
(7.23476 -0.062766 -9.67e-20)
(7.2304 -0.0715325 -9.78308e-20)
(7.2257 -0.0812194 1.06469e-19)
(7.22062 -0.0918908 0)
(7.21513 -0.103616 -1.36184e-19)
(7.20916 -0.116467 0)
(7.20269 -0.130523 0)
(7.19564 -0.145869 0)
(7.18798 -0.162596 -9.16814e-20)
(7.17963 -0.180805 5.41142e-20)
(7.17055 -0.200606 6.48194e-20)
(7.16065 -0.222118 0)
(7.14987 -0.245476 -8.16179e-21)
(7.13813 -0.270828 5.63041e-21)
(7.12536 -0.298341 0)
(7.11146 -0.328198 4.30333e-20)
(7.09633 -0.36061 4.26346e-20)
(7.07989 -0.395818 -1.29242e-19)
(7.06201 -0.43409 0)
(7.04258 -0.475743 0)
(7.02147 -0.521135 0)
(6.99854 -0.570685 4.16854e-20)
(6.97366 -0.624885 5.27587e-20)
(6.94667 -0.684303 0)
(6.9174 -0.749656 -5.76839e-21)
(6.88569 -0.821671 2.35678e-19)
(6.85136 -0.901571 3.6676e-20)
(6.8143 -0.989982 9.56595e-20)
(6.77426 -1.08979 -1.92257e-19)
(6.7315 -1.19949 1.33149e-20)
(6.68512 -1.32911 1.54182e-20)
(6.63787 -1.46429 -3.615e-20)
(6.58351 -1.64645 3.83987e-20)
(6.54053 -1.8018 1.69396e-19)
(6.46763 -2.09526 0)
(6.47243 -2.23287 1.08619e-19)
(6.32343 -2.77364 6.29721e-20)
(6.57743 -2.81672 -6.02539e-20)
(6.15739 -3.95164 -1.15731e-20)
(7.3499 -0.0141203 2.38424e-19)
(7.3501 -0.0132184 0)
(7.35022 -0.0116241 1.39077e-19)
(7.34907 -0.0122648 3.3766e-19)
(7.3479 -0.0124599 -1.75214e-19)
(7.3467 -0.0123028 -2.05354e-19)
(7.34528 -0.0121953 4.82572e-19)
(7.34373 -0.0120677 -5.2552e-19)
(7.34208 -0.0118737 0)
(7.34034 -0.0116348 1.70081e-19)
(7.33852 -0.0113581 -1.79085e-19)
(7.33662 -0.0110422 0)
(7.33465 -0.0106893 0)
(7.33263 -0.0103025 0)
(7.33054 -0.00988453 2.73952e-19)
(7.32841 -0.00943827 0)
(7.32623 -0.00896696 1.68216e-19)
(7.32401 -0.00847424 -1.88281e-19)
(7.32174 -0.00796408 -5.14348e-21)
(7.31944 -0.00744097 -2.21011e-19)
(7.3171 -0.00691004 -2.51364e-19)
(7.31473 -0.006377 5.30496e-19)
(7.31232 -0.00584825 0)
(7.30989 -0.0053311 3.18564e-19)
(7.30743 -0.00483384 3.49691e-19)
(7.30495 -0.00436567 -4.25608e-21)
(7.30245 -0.00393689 2.04872e-19)
(7.29992 -0.00355909 0)
(7.29738 -0.00324513 0)
(7.29481 -0.00300925 2.71984e-19)
(7.29223 -0.00286703 -1.41797e-19)
(7.28963 -0.00283583 -1.5704e-19)
(7.28701 -0.00293425 1.73352e-19)
(7.28437 -0.00318296 1.88426e-19)
(7.2817 -0.0036041 -2.07317e-19)
(7.279 -0.0042216 3.30864e-19)
(7.27627 -0.00506107 1.04674e-21)
(7.2735 -0.00615001 0)
(7.27068 -0.00751758 -1.42257e-19)
(7.2678 -0.009195 0)
(7.26485 -0.011215 1.67631e-19)
(7.26181 -0.0136122 -3.59814e-19)
(7.25868 -0.016423 -9.90594e-20)
(7.25542 -0.0196859 1.28088e-22)
(7.25203 -0.0234405 -2.2971e-19)
(7.24848 -0.0277294 2.49834e-19)
(7.24475 -0.0325962 4.21196e-21)
(7.24081 -0.0380872 -1.45377e-19)
(7.23663 -0.0442504 8.91561e-20)
(7.23218 -0.0511367 -8.62152e-20)
(7.22743 -0.0587995 9.30487e-20)
(7.22233 -0.067295 8.48946e-22)
(7.21686 -0.0766829 -4.28568e-21)
(7.21096 -0.087026 1.23079e-19)
(7.2046 -0.0983929 1.33021e-19)
(7.19773 -0.110855 -7.7313e-20)
(7.19029 -0.124489 -3.5809e-21)
(7.18223 -0.139382 -4.07925e-21)
(7.1735 -0.155623 2.04536e-19)
(7.16402 -0.173312 -5.75477e-20)
(7.15374 -0.19256 6.93012e-21)
(7.14259 -0.213485 2.11092e-19)
(7.13048 -0.236222 1.46969e-19)
(7.11733 -0.260919 -2.59778e-19)
(7.10307 -0.287742 -9.79382e-20)
(7.08758 -0.316881 1.03622e-19)
(7.07077 -0.348545 1.13417e-19)
(7.05253 -0.382973 -1.20286e-20)
(7.03273 -0.420444 0)
(7.01124 -0.461272 -8.59742e-20)
(6.98792 -0.505823 1.39347e-19)
(6.96262 -0.554527 -5.11466e-20)
(6.93516 -0.607879 0)
(6.90538 -0.666465 -6.83341e-20)
(6.87306 -0.731014 7.25463e-20)
(6.83803 -0.802303 -1.59034e-19)
(6.80004 -0.881527 -1.97505e-19)
(6.75895 -0.969487 2.21746e-19)
(6.71443 -1.06884 2.35809e-19)
(6.6667 -1.17881 1.4386e-20)
(6.61474 -1.30819 1.37653e-19)
(6.5612 -1.44555 4.08028e-20)
(6.49997 -1.62723 -2.29205e-19)
(6.44848 -1.78947 -9.03408e-20)
(6.36832 -2.08152 0)
(6.35932 -2.23434 -9.89282e-20)
(6.20875 -2.77972 -8.31198e-20)
(6.41944 -2.83162 1.11838e-19)
(6.05113 -4.004 0)
(7.35021 -0.0117952 0)
(7.35014 -0.0115512 0)
(7.35033 -0.0101004 0)
(7.34923 -0.0106381 -1.61102e-19)
(7.34804 -0.0108893 -1.89922e-19)
(7.34684 -0.0107562 1.99974e-19)
(7.34545 -0.0106293 -1.2375e-21)
(7.34391 -0.0104841 -2.56928e-19)
(7.34229 -0.0102703 -2.86207e-19)
(7.34057 -0.0100042 0)
(7.33877 -0.00969677 -3.53046e-19)
(7.3369 -0.00934829 0)
(7.33496 -0.00896112 2.16443e-19)
(7.33296 -0.00853871 0)
(7.3309 -0.00808431 -2.67181e-19)
(7.32879 -0.00760112 2.99938e-19)
(7.32663 -0.00709278 4.86091e-21)
(7.32443 -0.00656307 0)
(7.32217 -0.00601625 1.94044e-19)
(7.31988 -0.00545705 -2.1665e-19)
(7.31754 -0.00489069 -5.82398e-21)
(7.31517 -0.00432305 -2.56611e-19)
(7.31276 -0.00376066 2.81216e-19)
(7.31031 -0.00321089 -6.18765e-19)
(7.30783 -0.00268208 -1.69944e-19)
(7.30532 -0.00218325 2.86917e-21)
(7.30277 -0.0017248 -1.98598e-19)
(7.30019 -0.00131796 0)
(7.29758 -0.000975374 2.44993e-19)
(7.29494 -0.000710743 -2.52949e-19)
(7.29226 -0.000539587 -1.38233e-19)
(7.28955 -0.000478168 3.11228e-19)
(7.2868 -0.000544905 -3.41523e-19)
(7.284 -0.000759488 -1.89927e-19)
(7.28117 -0.00114306 -6.36561e-21)
(7.27828 -0.00171854 4.33501e-19)
(7.27533 -0.00251058 0)
(7.27232 -0.00354531 0)
(7.26923 -0.00485072 -3.29883e-21)
(7.26606 -0.00645648 -3.47368e-21)
(7.26278 -0.00839387 -1.63841e-19)
(7.2594 -0.010696 -5.00807e-21)
(7.25588 -0.0133979 -1.04818e-19)
(7.25221 -0.0165362 2.12471e-19)
(7.24837 -0.0201491 1.14211e-19)
(7.24434 -0.0242775 0)
(7.24009 -0.0289635 0)
(7.2356 -0.0342517 1.5329e-19)
(7.23083 -0.040189 -3.22526e-19)
(7.22575 -0.0468244 0)
(7.22033 -0.0542103 -3.021e-19)
(7.21452 -0.0624012 -1.09403e-19)
(7.2083 -0.071456 1.16336e-19)
(7.20161 -0.081436 0)
(7.19441 -0.092409 1.47674e-19)
(7.18665 -0.104445 -8.09941e-20)
(7.17827 -0.117621 1.75022e-19)
(7.16922 -0.13202 -2.94018e-19)
(7.15944 -0.147734 7.28513e-21)
(7.14886 -0.164861 0)
(7.13742 -0.18351 -1.27009e-19)
(7.12503 -0.2038 -1.41153e-19)
(7.11161 -0.225866 8.39597e-20)
(7.09708 -0.249855 -7.41584e-21)
(7.08133 -0.275935 9.91383e-20)
(7.06428 -0.304292 -2.35235e-19)
(7.0458 -0.33514 5.84241e-20)
(7.02577 -0.368723 1.31416e-19)
(7.00405 -0.405314 -7.78976e-20)
(6.98051 -0.445234 0)
(6.95498 -0.488856 2.10348e-19)
(6.92728 -0.536612 2.36692e-19)
(6.89723 -0.58901 0)
(6.86462 -0.646653 -7.41767e-20)
(6.82921 -0.710273 -6.79412e-21)
(6.79078 -0.780687 -2.79361e-19)
(6.74904 -0.859086 1.43046e-19)
(6.70379 -0.946412 1.37216e-19)
(6.65463 -1.04515 -5.25018e-19)
(6.6017 -1.15514 -6.73055e-20)
(6.54388 -1.28417 -4.14866e-20)
(6.48364 -1.42333 -1.91729e-19)
(6.41503 -1.6046 1.84041e-19)
(6.35436 -1.77314 -2.0423e-19)
(6.26587 -2.06428 2.83129e-20)
(6.24228 -2.23184 0)
(6.0876 -2.78226 0)
(6.26795 -2.85349 3.05508e-20)
(5.89476 -4.03195 -8.23978e-21)
(7.35046 -0.00983081 0)
(7.35017 -0.0100131 0)
(7.35041 -0.00869766 0)
(7.34938 -0.00912241 1.31861e-20)
(7.34818 -0.00938994 -1.72456e-19)
(7.34699 -0.00927138 4.0243e-19)
(7.34562 -0.00912104 -4.43005e-19)
(7.34411 -0.00895139 7.58523e-19)
(7.34251 -0.00871302 8.50493e-21)
(7.34082 -0.00841668 0)
(7.33905 -0.00807541 3.45387e-19)
(7.33721 -0.00769133 1.95257e-19)
(7.33529 -0.00726684 -4.17398e-19)
(7.33332 -0.00680573 0)
(7.33129 -0.00631162 2.63008e-19)
(7.3292 -0.00578812 -2.76979e-19)
(7.32706 -0.00523897 5.31908e-21)
(7.32487 -0.00466819 -3.36129e-19)
(7.32263 -0.00408017 3.07664e-21)
(7.32034 -0.00347982 5.38319e-21)
(7.31801 -0.00287241 -6.30405e-21)
(7.31564 -0.00226397 4.96124e-19)
(7.31322 -0.00166105 -2.93897e-21)
(7.31076 -0.00107103 5.99911e-19)
(7.30825 -0.000502112 0)
(7.30571 3.6728e-05 0)
(7.30312 0.000535286 0)
(7.30048 0.000982583 0)
(7.29781 0.00136635 -4.72861e-19)
(7.29508 0.00167319 5.08178e-19)
(7.29231 0.00188823 5.63594e-19)
(7.28949 0.00199557 -1.47553e-19)
(7.28661 0.00197758 -3.35385e-19)
(7.28367 0.00181553 1.78221e-19)
(7.28067 0.001489 0)
(7.2776 0.000976066 -6.49085e-19)
(7.27444 0.000253222 -2.43181e-19)
(7.2712 -0.000704506 -5.34953e-21)
(7.26785 -0.00192384 0)
(7.26439 -0.00343301 -2.32423e-21)
(7.26081 -0.00526201 0)
(7.25708 -0.00744257 -1.83527e-19)
(7.2532 -0.0100079 3.87826e-19)
(7.24913 -0.0129933 -2.11859e-19)
(7.24486 -0.0164356 -1.19456e-19)
(7.24037 -0.0203737 -4.65191e-21)
(7.23562 -0.0248484 1.37749e-19)
(7.23059 -0.0299031 0)
(7.22525 -0.0355825 -1.7141e-19)
(7.21957 -0.0419346 0)
(7.2135 -0.0490104 4.05243e-19)
(7.20702 -0.0568629 -1.13965e-19)
(7.20007 -0.0655494 1.20294e-19)
(7.19261 -0.07513 1.38516e-19)
(7.18459 -0.0856718 -2.91858e-19)
(7.17597 -0.0972427 -1.61603e-19)
(7.16668 -0.10992 0)
(7.15667 -0.123784 1.965e-19)
(7.14587 -0.138926 -1.08961e-19)
(7.13422 -0.155443 0)
(7.12163 -0.173443 -1.43568e-19)
(7.10803 -0.193046 0)
(7.09333 -0.214385 0)
(7.07743 -0.237606 -9.95333e-20)
(7.06024 -0.262876 2.16778e-19)
(7.04164 -0.290383 1.23634e-19)
(7.02151 -0.32034 7.76448e-21)
(6.99971 -0.352989 -1.54296e-21)
(6.9761 -0.388609 0)
(6.95052 -0.427523 0)
(6.92278 -0.470102 -3.21738e-19)
(6.89269 -0.516788 -2.27691e-19)
(6.86003 -0.568096 -4.20026e-19)
(6.82457 -0.624637 -8.01836e-20)
(6.78605 -0.687153 2.53633e-19)
(6.74417 -0.756495 1.89907e-19)
(6.69862 -0.833851 5.75869e-20)
(6.64911 -0.920281 -3.02802e-19)
(6.59517 -1.01814 2.71739e-19)
(6.53683 -1.12779 0)
(6.4729 -1.25617 -1.87375e-19)
(6.40556 -1.39657 2.93041e-19)
(6.32908 -1.57717 -1.08728e-19)
(6.25853 -1.75128 2.32981e-19)
(6.16058 -2.04113 0)
(6.12139 -2.22329 0)
(5.96013 -2.77608 1.58123e-20)
(6.10762 -2.86419 6.56547e-21)
(5.76124 -4.07026 -2.21795e-21)
(7.35073 -0.00816512 0)
(7.35023 -0.00860489 0)
(7.35048 -0.0074139 -2.727e-19)
(7.34952 -0.00772157 6.33034e-19)
(7.34832 -0.00797293 -6.92967e-19)
(7.34714 -0.00785531 -3.91754e-19)
(7.34581 -0.0076761 -2.25224e-19)
(7.34433 -0.00747452 2.43142e-19)
(7.34275 -0.00720572 1.44427e-20)
(7.34109 -0.00687501 -6.01894e-19)
(7.33935 -0.00649617 -5.81305e-21)
(7.33753 -0.00607288 -3.6622e-19)
(7.33565 -0.00560768 -1.95806e-19)
(7.3337 -0.00510447 3.42026e-21)
(7.33169 -0.00456723 7.88831e-21)
(7.32963 -0.0039997 -5.48801e-19)
(7.32751 -0.00340577 5.95314e-19)
(7.32533 -0.00278967 1.00667e-20)
(7.32311 -0.00215583 -1.71202e-19)
(7.32083 -0.00150918 -5.96083e-19)
(7.31851 -0.000855125 -2.22143e-19)
(7.31613 -0.000199669 -2.40797e-19)
(7.3137 0.000450687 -2.6737e-19)
(7.31123 0.00108857 4.53732e-21)
(7.3087 0.00170601 -9.57194e-19)
(7.30612 0.00229408 5.21869e-19)
(7.30349 0.00284292 -3.78666e-19)
(7.30081 0.00334183 -4.9147e-21)
(7.29807 0.00377884 -7.19844e-21)
(7.29527 0.00414105 5.01397e-19)
(7.29241 0.00441411 -5.43147e-19)
(7.28948 0.0045827 -2.99264e-19)
(7.28648 0.00462996 6.56421e-19)
(7.2834 0.00453794 -1.75369e-19)
(7.28024 0.00428699 -3.93586e-19)
(7.27698 0.00385633 4.21239e-19)
(7.27363 0.00322348 2.31358e-19)
(7.27016 0.00236461 2.52384e-19)
(7.26657 0.00125425 -2.78593e-19)
(7.26284 -0.000134518 1.50242e-19)
(7.25895 -0.00183041 0)
(7.2549 -0.00386362 1.89096e-21)
(7.25066 -0.00626586 -1.94355e-19)
(7.24621 -0.00907105 2.18938e-19)
(7.24153 -0.0123144 1.20961e-19)
(7.23659 -0.0160334 -2.60203e-19)
(7.23136 -0.0202672 1.39902e-19)
(7.22582 -0.0250575 1.59876e-19)
(7.21994 -0.0304477 -1.75614e-19)
(7.21367 -0.0364844 1.85503e-19)
(7.20698 -0.0432166 -4.1659e-19)
(7.19984 -0.0506963 1.1761e-19)
(7.19219 -0.0589793 -1.24174e-19)
(7.18399 -0.0681243 -1.43657e-19)
(7.17519 -0.0781964 4.62087e-19)
(7.16573 -0.0892624 -3.44189e-19)
(7.15556 -0.101398 -9.78817e-20)
(7.14462 -0.114684 -1.14001e-19)
(7.13283 -0.129208 1.21076e-19)
(7.12013 -0.145066 -5.32708e-19)
(7.10643 -0.162366 2.84685e-19)
(7.09165 -0.181226 -1.68132e-19)
(7.0757 -0.201775 2.72028e-19)
(7.05847 -0.224162 3.1014e-19)
(7.03986 -0.248553 0)
(7.01974 -0.275132 0)
(6.99798 -0.304112 1.48742e-19)
(6.97444 -0.335737 -1.57757e-19)
(6.94896 -0.370284 1.88488e-19)
(6.92135 -0.408075 0)
(6.89143 -0.449488 -1.58208e-20)
(6.85896 -0.494962 -2.70553e-19)
(6.82371 -0.545017 -9.69691e-20)
(6.78541 -0.600274 8.11438e-20)
(6.74375 -0.661482 0)
(6.69841 -0.72952 3.31742e-19)
(6.64899 -0.805568 -1.17547e-19)
(6.59515 -0.890787 7.05292e-20)
(6.53633 -0.987431 -1.54979e-19)
(6.47242 -1.09628 8.51184e-20)
(6.40217 -1.22359 1.88446e-19)
(6.32742 -1.36459 0)
(6.24261 -1.544 0)
(6.16159 -1.72278 2.88373e-19)
(6.05317 -2.0105 -3.05498e-19)
(5.99736 -2.207 0)
(5.82658 -2.75912 0)
(5.94296 -2.87407 -1.52697e-19)
(5.63393 -4.11235 -6.51076e-20)
(7.35102 -0.00674651 2.29351e-19)
(7.35032 -0.00732354 -2.80022e-21)
(7.35056 -0.00624383 -2.77974e-19)
(7.34967 -0.00643471 0)
(7.34848 -0.00664336 -3.56049e-19)
(7.34731 -0.00651224 7.60423e-19)
(7.346 -0.00629784 -4.25049e-19)
(7.34455 -0.00605694 8.00738e-21)
(7.34301 -0.00575127 -2.57012e-19)
(7.34137 -0.00538146 0)
(7.33966 -0.00496088 3.25659e-19)
(7.33788 -0.00449442 3.60403e-19)
(7.33602 -0.00398481 -1.96713e-19)
(7.3341 -0.00343591 2.02962e-19)
(7.33212 -0.00285184 4.78555e-19)
(7.33008 -0.00223643 -5.35679e-19)
(7.32798 -0.00159367 2.8201e-19)
(7.32583 -0.000927863 3.24814e-19)
(7.32362 -0.000243449 0)
(7.32135 0.00045458 7.80101e-19)
(7.31903 0.00116094 -4.31959e-19)
(7.31666 0.00186959 7.01724e-19)
(7.31423 0.00257426 0)
(7.31174 0.00326757 -2.89747e-19)
(7.30919 0.00394175 3.00337e-19)
(7.30658 0.00458817 3.34693e-19)
(7.30391 0.00519717 1.8772e-19)
(7.30118 0.00575852 -2.05508e-19)
(7.29838 0.00626039 2.2493e-19)
(7.2955 0.00669062 0)
(7.29256 0.00703543 2.68054e-19)
(7.28952 0.00727996 -6.2866e-21)
(7.28641 0.00740803 1.51632e-19)
(7.28319 0.00740274 -6.59449e-21)
(7.27988 0.00724532 5.77647e-19)
(7.27645 0.00691569 7.88446e-21)
(7.2729 0.00639265 8.64448e-21)
(7.26922 0.00565346 -5.00901e-19)
(7.26539 0.00467382 2.74571e-19)
(7.2614 0.0034281 -1.54203e-19)
(7.25723 0.00188893 -6.37149e-21)
(7.25287 2.76416e-05 3.58012e-19)
(7.24829 -0.0021864 -2.03128e-19)
(7.24347 -0.0047852 -2.2221e-19)
(7.23839 -0.00780284 -2.46747e-21)
(7.23303 -0.011275 6.59514e-19)
(7.22735 -0.0152394 -2.90033e-19)
(7.22132 -0.019736 1.56215e-19)
(7.21491 -0.0248072 0)
(7.20808 -0.0304974 -1.96897e-19)
(7.2008 -0.0368541 4.27357e-19)
(7.19302 -0.043928 1.21063e-19)
(7.18469 -0.0517731 -2.60391e-19)
(7.17578 -0.0604467 -1.4154e-19)
(7.16622 -0.0700121 0)
(7.15596 -0.0805351 1.74085e-19)
(7.14494 -0.0920894 8.40273e-22)
(7.13309 -0.104754 -1.97845e-22)
(7.12034 -0.118614 0)
(7.10662 -0.133766 5.47907e-19)
(7.09184 -0.150315 0)
(7.07592 -0.168376 1.75691e-19)
(7.05874 -0.18808 -1.86241e-19)
(7.04021 -0.209571 -2.0862e-19)
(7.02021 -0.233012 -1.23479e-19)
(6.9986 -0.258588 -1.31662e-19)
(6.97526 -0.286512 0)
(6.95 -0.317022 0)
(6.92267 -0.350396 -1.8709e-19)
(6.89307 -0.386956 -1.12381e-19)
(6.86097 -0.427079 1.04204e-19)
(6.82615 -0.471202 2.68942e-19)
(6.78832 -0.519853 4.66386e-19)
(6.74718 -0.573652 -1.72793e-19)
(6.70238 -0.633357 2.08091e-19)
(6.65355 -0.699861 1.5305e-20)
(6.60024 -0.774346 2.67935e-19)
(6.54201 -0.858048 0)
(6.47823 -0.953141 0)
(6.40863 -1.06077 -3.91932e-19)
(6.33188 -1.1866 1.09946e-19)
(6.24944 -1.32753 7.173e-20)
(6.15595 -1.5053 6.60334e-20)
(6.06394 -1.68783 -2.14013e-19)
(5.9442 -1.97281 -1.13452e-19)
(5.87098 -2.18289 3.40998e-19)
(5.68824 -2.73284 -2.87453e-19)
(5.77054 -2.88026 -2.28527e-20)
(5.46508 -4.13794 -2.85792e-20)
(7.35131 -0.00553625 1.71521e-19)
(7.35046 -0.00616171 0)
(7.35065 -0.00517849 2.67716e-19)
(7.34982 -0.00525605 0)
(7.34864 -0.00540209 3.49466e-19)
(7.34749 -0.00524368 -3.6799e-19)
(7.34621 -0.00498768 2.04908e-19)
(7.3448 -0.00470059 4.6674e-19)
(7.34328 -0.00435159 -5.14161e-19)
(7.34168 -0.0039377 -1.41367e-20)
(7.34 -0.00347104 3.07206e-19)
(7.33825 -0.00295738 0)
(7.33642 -0.0023995 3.87304e-19)
(7.33453 -0.0018011 -4.27663e-19)
(7.33258 -0.00116637 -4.71566e-19)
(7.33057 -0.00049922 2.48406e-19)
(7.32849 0.000196479 -8.42534e-21)
(7.32636 0.000916377 0)
(7.32416 0.0016561 -3.41759e-19)
(7.32191 0.0024107 -7.58334e-19)
(7.3196 0.00317489 2.10097e-19)
(7.31722 0.00394289 -4.58326e-19)
(7.31479 0.00470848 -2.49973e-19)
(7.31229 0.00546454 0)
(7.30972 0.00620358 3.01649e-19)
(7.30709 0.00691703 3.31206e-19)
(7.30438 0.00759579 0)
(7.3016 0.00822975 0)
(7.29874 0.00880789 0)
(7.2958 0.00931822 5.89562e-21)
(7.29277 0.00974773 -2.54367e-19)
(7.28964 0.0100821 -5.74144e-19)
(7.28641 0.0103061 -3.1757e-19)
(7.28307 0.0104033 3.47548e-19)
(7.27961 0.010356 -1.90637e-19)
(7.27602 0.0101453 -2.09149e-19)
(7.27229 0.00975069 2.33808e-19)
(7.2684 0.00915073 8.27337e-21)
(7.26435 0.00832223 -2.70342e-19)
(7.26011 0.00724081 -4.58221e-19)
(7.25567 0.00588046 1.62797e-19)
(7.25101 0.00421381 0)
(7.24611 0.00221165 -2.0477e-19)
(7.24094 -0.000156484 2.11819e-19)
(7.23548 -0.00292334 -2.39808e-19)
(7.22971 -0.00612282 -2.63826e-19)
(7.22359 -0.00979145 -2.97886e-19)
(7.21709 -0.0139674 0)
(7.21018 -0.0186914 -1.81792e-19)
(7.20282 -0.0240066 1.94961e-19)
(7.19497 -0.0299588 7.22583e-21)
(7.18658 -0.0365969 0)
(7.17761 -0.0439732 1.2599e-19)
(7.16801 -0.0521434 2.99287e-19)
(7.15772 -0.0611696 -3.32566e-19)
(7.14668 -0.0711149 1.80205e-19)
(7.13484 -0.0820512 4.12436e-19)
(7.12212 -0.0940571 -4.57643e-19)
(7.10844 -0.107215 0)
(7.09374 -0.12162 -2.7898e-19)
(7.07791 -0.137375 -3.27127e-19)
(7.06087 -0.154592 -1.7453e-19)
(7.04251 -0.173399 -2.06817e-19)
(7.02271 -0.193941 1.03058e-19)
(7.00135 -0.216378 3.69396e-19)
(6.97829 -0.240892 -1.46796e-19)
(6.95338 -0.267691 4.84439e-19)
(6.92644 -0.297015 -1.86391e-19)
(6.8973 -0.329138 3.03146e-19)
(6.86572 -0.364382 1.24558e-19)
(6.83149 -0.403119 2.52721e-19)
(6.79432 -0.44579 0)
(6.75393 -0.492918 1.7241e-19)
(6.70996 -0.545126 -8.59152e-20)
(6.66203 -0.603178 -4.23448e-19)
(6.6097 -0.667979 7.21562e-21)
(6.55247 -0.740711 -2.77257e-19)
(6.4898 -0.822671 7.16904e-20)
(6.42097 -0.915978 1.79778e-19)
(6.34554 -1.02206 7.1684e-19)
(6.26209 -1.14614 -1.19399e-19)
(6.17166 -1.28651 -6.70309e-19)
(6.06906 -1.46243 -3.06899e-19)
(5.96534 -1.64785 3.47511e-19)
(5.8334 -1.93017 7.22192e-19)
(5.74126 -2.15259 -3.89057e-19)
(5.54474 -2.70132 3.84181e-19)
(5.59237 -2.87486 -2.64319e-20)
(5.25997 -4.14464 2.17715e-19)
(7.35162 -0.00450391 3.49608e-19)
(7.35063 -0.00511147 2.65376e-19)
(7.35077 -0.0042089 2.68393e-19)
(7.34998 -0.0041785 0)
(7.34883 -0.00424747 0)
(7.34768 -0.00404933 0)
(7.34644 -0.00374556 4.19463e-19)
(7.34506 -0.00340624 -2.14006e-19)
(7.34357 -0.00300777 2.48293e-19)
(7.34201 -0.00254485 -2.84017e-19)
(7.34037 -0.00202785 2.99106e-19)
(7.33864 -0.00146288 3.46717e-19)
(7.33685 -0.000852836 -3.65147e-19)
(7.335 -0.000201234 0)
(7.33307 0.000487925 2.21734e-19)
(7.33109 0.00121077 -2.94503e-21)
(7.32904 0.00196348 -2.73707e-19)
(7.32692 0.00274182 -3.01606e-19)
(7.32475 0.00354145 3.38323e-19)
(7.32251 0.00435765 6.5531e-21)
(7.32021 0.00518521 2.07757e-19)
(7.31784 0.00601854 6.32688e-21)
(7.3154 0.00685149 2.47515e-19)
(7.31289 0.00767746 -2.67944e-19)
(7.31031 0.00848899 -6.01999e-19)
(7.30765 0.00927798 3.15356e-19)
(7.30492 0.0100356 3.6588e-19)
(7.30209 0.0107523 -5.75603e-19)
(7.29918 0.0114173 -2.11662e-19)
(7.29617 0.0120194 2.37859e-19)
(7.29306 0.0125459 -2.59213e-19)
(7.28985 0.0129835 6.98827e-21)
(7.28651 0.0133177 -3.07467e-19)
(7.28305 0.0135326 -6.88124e-19)
(7.27945 0.0136116 1.88913e-19)
(7.27571 0.0135366 -4.73416e-21)
(7.2718 0.0132883 -9.40832e-21)
(7.26772 0.0128462 7.46311e-19)
(7.26346 0.0121884 2.81424e-19)
(7.25898 0.0112917 1.59297e-19)
(7.25429 0.0101314 -1.63214e-19)
(7.24935 0.00868149 0)
(7.24414 0.00691414 2.06597e-19)
(7.23864 0.00480021 2.64036e-21)
(7.23283 0.0023087 2.4759e-19)
(7.22667 -0.000593048 2.7746e-19)
(7.22013 -0.00393987 -2.99508e-19)
(7.21319 -0.00776849 0)
(7.2058 -0.0121177 -7.12905e-21)
(7.19793 -0.0170293 -9.78612e-21)
(7.18953 -0.0225472 -2.32342e-19)
(7.18056 -0.0287189 4.99729e-19)
(7.17098 -0.0355945 1.08975e-20)
(7.16072 -0.0432287 -3.13189e-19)