/*--------------------------------*- C++ -*----------------------------------*\
  =========                 |
  \\      /  F ield         | OpenFOAM: The Open Source CFD Toolbox
   \\    /   O peration     | Website:  https://openfoam.org
    \\  /    A nd           | Version:  11
     \\/     M anipulation  |
\*---------------------------------------------------------------------------*/
FoamFile
{
    format      ascii;
    class       volVectorField;
    location    "250";
    object      U;
}
// * * * * * * * * * * * * * * * * * * * * * * * * * * * * * * * * * * * * * //

dimensions      [0 1 -1 0 0 0 0];

internalField   nonuniform List<vector> 
31595
(
(25.5188 3.30969 -9.02548e-19)
(25.6779 3.40468 3.31272e-19)
(25.6207 3.43213 1.3657e-18)
(25.6351 3.42444 1.53189e-18)
(25.6139 3.42714 0)
(25.6064 3.43192 0)
(25.5838 3.43334 0)
(25.5654 3.43526 1.16877e-18)
(25.5416 3.43724 3.55182e-20)
(25.5177 3.43941 0)
(25.4912 3.44167 0)
(25.4637 3.44423 8.62361e-19)
(25.4346 3.44706 -9.08669e-19)
(25.4042 3.45023 1.04641e-18)
(25.3725 3.45374 -1.10269e-18)
(25.3395 3.45763 1.23153e-18)
(25.3051 3.46193 0)
(25.2695 3.46666 -1.53771e-18)
(25.2325 3.47183 3.26311e-18)
(25.1941 3.47749 -9.31195e-19)
(25.1544 3.48364 9.81507e-19)
(25.1132 3.49032 0)
(25.0706 3.49755 0)
(25.0264 3.50534 1.3635e-18)
(24.9807 3.51372 -6.87768e-19)
(24.9334 3.52271 3.38569e-20)
(24.8844 3.53233 -1.73499e-18)
(24.8337 3.54261 -9.95794e-19)
(24.7813 3.55355 2.14413e-18)
(24.727 3.56517 -2.32118e-18)
(24.6708 3.57749 0)
(24.6126 3.59051 -6.93285e-19)
(24.5524 3.60425 7.96582e-19)
(24.4901 3.61871 -8.40286e-19)
(24.4255 3.63389 9.4748e-19)
(24.3588 3.64979 -1.05423e-18)
(24.2896 3.6664 5.58896e-19)
(24.218 3.68372 1.86074e-18)
(24.1438 3.70173 0)
(24.0669 3.72041 -7.64599e-19)
(23.9872 3.73974 1.6351e-18)
(23.9046 3.7597 0)
(23.8189 3.78027 0)
(23.73 3.8014 -5.61298e-19)
(23.6377 3.82306 2.35326e-18)
(23.5418 3.84522 0)
(23.4421 3.86783 -7.32248e-19)
(23.3384 3.89085 1.56676e-18)
(23.2305 3.91423 -8.82366e-19)
(23.1182 3.9379 9.58296e-19)
(23.0011 3.96183 -2.59977e-18)
(22.879 3.98594 5.63333e-19)
(22.7515 4.01017 -1.89362e-18)
(22.6184 4.03444 2.76161e-18)
(22.4792 4.05869 -7.3626e-19)
(22.3336 4.08281 -1.66441e-18)
(22.1812 4.10672 -9.40705e-19)
(22.0213 4.13032 -5.38752e-19)
(21.8537 4.15348 -1.14761e-18)
(21.6776 4.17608 1.83287e-18)
(21.4925 4.19796 -1.1077e-20)
(21.2977 4.21898 7.50232e-19)
(21.0924 4.23892 4.02432e-20)
(20.8759 4.25759 -4.24633e-19)
(20.6473 4.27472 5.34727e-19)
(20.4055 4.29003 -2.2537e-18)
(20.1494 4.30318 -6.33526e-19)
(19.8777 4.31378 6.9816e-19)
(19.5892 4.32136 2.33629e-18)
(19.2821 4.32535 5.3251e-20)
(18.9547 4.32509 -1.3983e-18)
(18.605 4.31977 2.30415e-20)
(18.2306 4.30843 1.22184e-18)
(17.8289 4.28984 0)
(17.3968 4.26254 1.53419e-18)
(16.9308 4.22469 0)
(16.4266 4.17396 9.88046e-19)
(15.8795 4.10742 0)
(15.2836 4.02128 0)
(14.6322 3.91069 0)
(13.9171 3.76917 1.73545e-18)
(13.1286 3.5882 1.01564e-18)
(12.2548 3.35629 -1.82357e-18)
(11.2824 3.05719 -1.49063e-18)
(10.1935 2.67119 8.73629e-19)
(8.97168 2.15909 5.75197e-19)
(7.59158 1.50824 7.68143e-19)
(6.04885 0.545479 -1.04009e-18)
(4.32351 -0.354148 1.58739e-18)
(25.6359 3.3521 2.83501e-18)
(25.6458 3.40634 1.50911e-18)
(25.6478 3.45003 1.28617e-18)
(25.6349 3.44288 -4.4106e-18)
(25.6212 3.44488 0)
(25.6066 3.45044 0)
(25.5876 3.45339 1.97012e-18)
(25.5667 3.45583 0)
(25.544 3.45874 0)
(25.5196 3.46177 -2.64075e-18)
(25.4936 3.46499 -4.40927e-18)
(25.4662 3.4685 3.18264e-18)
(25.4374 3.47235 1.76477e-18)
(25.4073 3.47657 3.94645e-18)
(25.3759 3.48118 -2.11121e-18)
(25.3433 3.48623 -1.19508e-18)
(25.3094 3.49172 1.33626e-18)
(25.2742 3.49769 -4.26047e-18)
(25.2376 3.50416 2.41433e-20)
(25.1998 3.51116 -3.43205e-18)
(25.1605 3.5187 0)
(25.1199 3.52681 0)
(25.0778 3.53551 0)
(25.0342 3.54483 0)
(24.9891 3.55478 2.77791e-18)
(24.9424 3.5654 0)
(24.8941 3.57669 3.38579e-18)
(24.844 3.58868 0)
(24.7922 3.60138 2.02746e-18)
(24.7386 3.61482 1.13351e-18)
(24.6831 3.629 -1.26145e-18)
(24.6256 3.64395 1.31289e-18)
(24.566 3.65966 1.46171e-18)
(24.5044 3.67615 -1.67143e-18)
(24.4406 3.69341 1.76333e-18)
(24.3745 3.71146 -1.00748e-18)
(24.306 3.73029 2.15534e-18)
(24.235 3.7499 -1.1992e-18)
(24.1614 3.77027 0)
(24.0851 3.79139 0)
(24.006 3.81326 -3.16516e-18)
(23.924 3.83585 -1.68289e-20)
(23.8388 3.85913 0)
(23.7503 3.8831 2.06326e-18)
(23.6584 3.90771 -2.25089e-18)
(23.5629 3.93294 -1.23121e-18)
(23.4635 3.95876 0)
(23.3601 3.98512 0)
(23.2525 4.01199 0)
(23.1403 4.03932 9.18848e-19)
(23.0233 4.06706 1.0096e-18)
(22.9012 4.09518 1.10963e-18)
(22.7736 4.1236 1.21998e-18)
(22.6404 4.15226 -1.34177e-18)
(22.501 4.18111 7.08419e-19)
(22.355 4.21007 -3.13555e-20)
(22.2021 4.23905 1.78156e-18)
(22.0418 4.26797 -9.77383e-19)
(21.8734 4.29673 1.07434e-18)
(21.6965 4.3252 -1.16782e-18)
(21.5104 4.35327 -6.20752e-19)
(21.3144 4.38078 -2.16395e-18)
(21.1078 4.40756 8.09851e-19)
(20.8897 4.43342 -9.11789e-19)
(20.6592 4.45812 -2.31086e-20)
(20.4153 4.48142 3.3178e-18)
(20.1567 4.50298 -1.21895e-18)
(19.8822 4.52244 2.7199e-18)
(19.5904 4.53938 -2.22893e-18)
(19.2795 4.55323 8.55064e-19)
(18.9477 4.56339 -9.66784e-19)
(18.5929 4.56908 1.03817e-18)
(18.2127 4.56934 -1.80247e-18)
(17.8042 4.563 1.30794e-18)
(17.3641 4.54863 -7.76397e-19)
(16.8888 4.52438 0)
(16.3738 4.48795 1.9536e-18)
(15.8138 4.43639 2.23561e-18)
(15.2028 4.36584 2.57253e-18)
(14.5333 4.27134 7.64383e-19)
(13.7967 4.1462 -3.48238e-18)
(12.9824 3.98155 -1.04813e-18)
(12.0774 3.76518 -2.44739e-18)
(11.0673 3.48001 3.68672e-18)
(9.93242 3.10377 1.83638e-18)
(8.65577 2.5964 -4.08189e-18)
(7.2077 1.93319 -2.33691e-18)
(5.59677 0.95515 -5.53708e-18)
(3.71385 -0.0343721 9.16365e-18)
(25.6605 3.39929 -2.33127e-18)
(25.6544 3.42608 -2.44381e-18)
(25.6568 3.46679 2.56664e-18)
(25.6418 3.46322 1.43402e-19)
(25.6261 3.46376 -3.21396e-18)
(25.6101 3.46938 3.38513e-18)
(25.591 3.47319 3.81329e-18)
(25.5698 3.4763 -2.05599e-18)
(25.547 3.4799 0)
(25.5227 3.48376 2.5712e-18)
(25.4969 3.48786 2.83302e-18)
(25.4698 3.4923 -1.56032e-18)
(25.4413 3.49713 -1.71835e-18)
(25.4116 3.50239 -1.9515e-18)
(25.3806 3.50808 2.02442e-18)
(25.3484 3.51426 0)
(25.3149 3.52093 2.56063e-18)
(25.2802 3.52813 2.80844e-18)
(25.2442 3.53587 0)
(25.2069 3.54418 -1.62184e-18)
(25.1682 3.55309 0)
(25.1282 3.56262 -1.99783e-18)
(25.0867 3.57279 0)
(25.0438 3.58362 4.90887e-18)
(24.9993 3.59513 -5.2492e-18)
(24.9533 3.60735 -5.80949e-18)
(24.9056 3.6203 -3.29117e-18)
(24.8562 3.634 1.74624e-18)
(24.8051 3.64847 -1.97526e-18)
(24.7522 3.66372 0)
(24.6974 3.67977 0)
(24.6407 3.69664 -1.32601e-18)
(24.5819 3.71433 2.76593e-18)
(24.521 3.73286 1.53648e-18)
(24.4578 3.75224 0)
(24.3924 3.77247 0)
(24.3246 3.79355 -2.11802e-18)
(24.2544 3.81547 2.23555e-18)
(24.1815 3.83825 -1.27677e-18)
(24.1058 3.86186 5.46948e-18)
(24.0274 3.88631 3.07384e-18)
(23.9459 3.91158 4.52466e-20)
(23.8613 3.93766 -1.80096e-18)
(23.7733 3.96452 -3.59e-20)
(23.6819 3.99215 2.21141e-18)
(23.5868 4.02053 -2.38643e-18)
(23.4879 4.04963 1.34984e-18)
(23.3848 4.07942 1.3704e-20)
(23.2774 4.10987 0)
(23.1654 4.14095 -1.74077e-18)
(23.0486 4.17261 -1.91436e-18)
(22.9266 4.20483 2.10593e-18)
(22.7991 4.23755 -1.12531e-18)
(22.6657 4.27073 -2.57476e-18)
(22.5262 4.3043 -3.61159e-20)
(22.38 4.33822 1.5926e-18)
(22.2267 4.3724 -1.68815e-18)
(22.0658 4.40679 -9.68422e-19)
(21.8969 4.44128 3.09143e-18)
(21.7192 4.47578 1.11756e-18)
(21.5322 4.51019 1.25428e-18)
(21.3352 4.54436 1.42252e-18)
(21.1273 4.57816 -1.55611e-18)
(20.9077 4.61141 0)
(20.6755 4.6439 0)
(20.4295 4.67539 -4.29706e-18)
(20.1686 4.7056 -1.20068e-18)
(19.8915 4.73418 0)
(19.5965 4.76074 0)
(19.2821 4.78476 -1.66188e-18)
(18.9462 4.80566 0)
(18.5866 4.8227 -3.13746e-18)
(18.2008 4.83497 1.14728e-18)
(17.7859 4.84132 2.75817e-20)
(17.3384 4.84036 -3.72411e-18)
(16.8543 4.83027 8.32663e-19)
(16.329 4.80877 -2.8875e-18)
(15.7569 4.77292 -3.32101e-18)
(15.1314 4.71882 -2.57357e-18)
(14.4447 4.64143 2.98064e-18)
(13.6873 4.53387 -3.49385e-18)
(12.848 4.38697 2.07117e-18)
(11.9124 4.18788 2.48366e-18)
(10.8649 3.91873 -6.84059e-18)
(9.68371 3.55487 9.26029e-19)
(8.35045 3.05525 1.81347e-18)
(6.83256 2.38345 8.12023e-19)
(5.14246 1.39404 1.33075e-17)
(3.13107 0.315946 -1.53262e-17)
(25.6777 3.43874 -2.0077e-18)
(25.6632 3.44993 -2.35263e-18)
(25.6633 3.48484 -2.35116e-18)
(25.6479 3.48329 2.78507e-18)
(25.6308 3.48309 6.42616e-20)
(25.6139 3.48839 0)
(25.5947 3.49278 6.21902e-20)
(25.5733 3.49652 -2.01551e-18)
(25.5505 3.50075 2.1812e-18)
(25.5264 3.50539 0)
(25.5008 3.51034 2.76612e-18)
(25.474 3.51568 -2.91459e-18)
(25.4459 3.52148 -3.35168e-18)
(25.4165 3.52775 1.71325e-18)
(25.386 3.53451 0)
(25.3543 3.5418 0)
(25.3213 3.54963 -2.378e-18)
(25.2871 3.55804 -2.66702e-18)
(25.2517 3.56704 2.877e-18)
(25.215 3.57666 6.49618e-18)
(25.1769 3.58692 3.37673e-20)
(25.1375 3.59785 -3.85013e-18)
(25.0967 3.60946 -8.94621e-20)
(25.0544 3.62179 -6.95035e-20)
(25.0107 3.63485 5.3195e-20)
(24.9654 3.64866 2.85322e-18)
(24.9184 3.66326 0)
(24.8698 3.67866 1.74347e-18)
(24.8195 3.69487 -3.75461e-18)
(24.7674 3.71193 -2.12273e-18)
(24.7133 3.72984 -9.23703e-20)
(24.6574 3.74863 -2.06899e-20)
(24.5994 3.7683 -2.76085e-18)
(24.5393 3.78888 0)
(24.477 3.81037 0)
(24.4124 3.83277 -1.8493e-18)
(24.3454 3.85611 -1.60759e-20)
(24.2759 3.88037 0)
(24.2037 3.90556 0)
(24.1289 3.93169 -2.66172e-18)
(24.0511 3.95874 -1.46161e-18)
(23.9703 3.98671 3.14648e-18)
(23.8864 4.0156 3.54554e-18)
(23.7991 4.04539 -1.92088e-18)
(23.7083 4.07607 4.23771e-18)
(23.6138 4.10763 6.42452e-20)
(23.5154 4.14005 0)
(23.4128 4.17331 -1.41178e-18)
(23.3059 4.20739 3.04729e-18)
(23.1943 4.24226 3.43363e-18)
(23.0778 4.2779 -1.79379e-18)
(22.9561 4.31428 -2.06592e-18)
(22.8288 4.35136 2.27416e-18)
(22.6956 4.38911 0)
(22.5561 4.42749 -2.71388e-18)
(22.4099 4.46644 0)
(22.2566 4.50592 0)
(22.0955 4.54587 0)
(21.9262 4.58621 -2.04476e-18)
(21.7481 4.62687 1.1459e-18)
(21.5606 4.66775 1.24606e-18)
(21.3628 4.70874 0)
(21.154 4.74973 6.48988e-20)
(20.9333 4.79056 2.08393e-20)
(20.6997 4.83105 0)
(20.4522 4.87099 1.03335e-18)
(20.1894 4.91013 1.16812e-18)
(19.91 4.94816 -2.57906e-18)
(19.6125 4.98471 0)
(19.295 5.01933 0)
(18.9555 5.05146 0)
(18.5917 5.08043 1.00869e-18)
(18.2009 5.10534 1.1301e-18)
(17.7802 5.12514 0)
(17.3257 5.13848 -3.09351e-20)
(16.8335 5.1436 5.00996e-18)
(16.2984 5.13826 9.46333e-19)
(15.7147 5.11955 2.22329e-18)
(15.0753 5.08362 -4.47534e-18)
(14.3718 5.02535 -4.98032e-20)
(13.594 4.93779 8.73272e-19)
(12.7296 4.81153 -1.07607e-18)
(11.7632 4.63315 1.23593e-18)
(10.6773 4.38406 6.22269e-18)
(9.44804 4.03728 0)
(8.05471 3.55051 5.80385e-18)
(6.46213 2.87522 6.2674e-18)
(4.6806 1.87896 -1.08228e-17)
(2.52576 0.716988 9.55787e-18)
(25.6852 3.47152 3.96449e-18)
(25.6695 3.47314 0)
(25.6685 3.50292 2.30333e-18)
(25.6533 3.50275 5.25451e-18)
(25.6354 3.50226 -2.7822e-18)
(25.6179 3.5072 -3.13913e-18)
(25.5986 3.51203 7.11642e-18)
(25.5772 3.51635 -7.73985e-18)
(25.5546 3.52119 0)
(25.5306 3.52656 2.41777e-18)
(25.5053 3.53234 -2.54745e-18)
(25.4788 3.53857 0)
(25.4512 3.54531 0)
(25.4223 3.55257 0)
(25.3923 3.56039 3.77233e-18)
(25.3611 3.56877 0)
(25.3287 3.57775 2.3305e-18)
(25.2951 3.58735 -2.59414e-18)
(25.2602 3.59759 -8.51661e-20)
(25.2242 3.6085 -3.03358e-18)
(25.1868 3.6201 -3.52409e-18)
(25.1481 3.63241 7.38606e-18)
(25.108 3.64545 0)
(25.0664 3.65926 4.43176e-18)
(25.0234 3.67385 4.92753e-18)
(24.9789 3.68925 -9.1283e-20)
(24.9328 3.70548 2.91943e-18)
(24.885 3.72256 0)
(24.8354 3.74052 0)
(24.7841 3.75937 4.01736e-18)
(24.731 3.77913 -2.05697e-18)
(24.6759 3.79984 -2.28499e-18)
(24.6187 3.82149 2.59024e-18)
(24.5595 3.84411 2.84578e-18)
(24.4981 3.86771 -3.23085e-18)
(24.4343 3.89231 5.1846e-18)
(24.3682 3.9179 5.71635e-20)
(24.2995 3.94451 0)
(24.2282 3.97214 -2.27722e-18)
(24.1542 4.00079 0)
(24.0773 4.03046 2.74902e-18)
(23.9973 4.06117 -6.10865e-18)
(23.9141 4.09289 -1.71349e-18)
(23.8276 4.12564 -5.35644e-20)
(23.7375 4.15941 -4.11813e-18)
(23.6437 4.19419 4.46258e-18)
(23.546 4.22997 9.61448e-20)
(23.444 4.26674 -2.64525e-18)
(23.3377 4.3045 1.45291e-18)
(23.2266 4.34322 -1.60096e-18)
(23.1106 4.38289 1.81259e-18)
(22.9893 4.42349 -6.10734e-20)
(22.8624 4.465 -8.60234e-20)
(22.7296 4.50739 2.35556e-18)
(22.5903 4.55065 2.67019e-18)
(22.4443 4.59472 -1.49081e-18)
(22.291 4.63959 -6.44784e-20)
(22.13 4.6852 -7.15303e-20)
(21.9606 4.7315 3.8811e-18)
(21.7822 4.77843 -1.11192e-18)
(21.5943 4.82592 -8.83319e-20)
(21.396 4.87389 3.95906e-18)
(21.1866 4.92222 2.98507e-18)
(20.965 4.97081 -4.92231e-18)
(20.7304 5.0195 -1.87027e-18)
(20.4815 5.06812 1.99667e-18)
(20.2171 5.11645 2.28594e-18)
(19.9358 5.16422 3.37873e-20)
(19.6359 5.2111 0)
(19.3157 5.25668 -1.62749e-18)
(18.9729 5.30048 2.66377e-18)
(18.6053 5.34185 -9.84922e-19)
(18.2099 5.38 0)
(17.7836 5.41392 -1.31817e-18)
(17.3227 5.44233 1.43093e-18)
(16.8226 5.46357 -3.35255e-18)
(16.2782 5.47547 -3.81132e-18)
(15.6831 5.47518 4.39681e-18)
(15.03 5.45892 5.12365e-18)
(14.3098 5.42163 -1.83944e-20)
(13.5115 5.35627 3.55087e-18)
(12.6217 5.25331 1.08818e-18)
(11.6236 5.09889 -6.39373e-18)
(10.4979 4.8738 -3.19448e-18)
(9.21785 4.54895 0)
(7.75988 4.08036 -5.422e-18)
(6.08505 3.40803 -8.70778e-18)
(4.19026 2.41317 1.39532e-17)
(1.8966 1.16778 0)
(25.6911 3.49845 0)
(25.6744 3.49481 0)
(25.6728 3.52038 0)
(25.6579 3.52127 -2.52775e-18)
(25.6397 3.52085 -2.87987e-18)
(25.622 3.52556 3.03374e-18)
(25.6027 3.53077 -6.33157e-20)
(25.5815 3.53568 -3.71982e-18)
(25.559 3.54113 -4.09576e-18)
(25.5353 3.54722 0)
(25.5104 3.55381 -4.95635e-18)
(25.4844 3.56091 0)
(25.4571 3.56858 2.9975e-18)
(25.4288 3.57682 0)
(25.3993 3.58567 -3.70798e-18)
(25.3687 3.59514 4.1236e-18)
(25.3369 3.60525 3.50563e-20)
(25.3039 3.61603 0)
(25.2698 3.6275 2.64788e-18)
(25.2344 3.63968 -2.94195e-18)
(25.1977 3.65259 -1.02504e-19)
(25.1597 3.66627 -3.51773e-18)
(25.1204 3.68073 3.86676e-18)
(25.0797 3.696 -8.60742e-18)
(25.0375 3.71211 -2.39501e-18)
(24.9938 3.72907 2.52711e-20)
(24.9485 3.74692 -2.80296e-18)
(24.9015 3.76567 0)
(24.8529 3.78535 3.52772e-18)
(24.8025 3.80599 -3.5899e-18)
(24.7502 3.82761 -1.97889e-18)
(24.696 3.85022 4.57993e-18)
(24.6398 3.87385 -5.11856e-18)
(24.5815 3.89851 -2.91146e-18)
(24.521 3.92422 -1.22429e-19)
(24.4582 3.951 6.5719e-18)
(24.393 3.97887 0)
(24.3253 4.00783 0)
(24.255 4.0379 -2.0126e-20)
(24.1819 4.06909 -1.51784e-20)
(24.1059 4.10141 -2.7063e-18)
(24.0268 4.13486 -2.71655e-20)
(23.9445 4.16945 -1.67024e-18)
(23.8588 4.20518 3.43912e-18)
(23.7696 4.24206 1.91667e-18)
(23.6766 4.28008 0)
(23.5797 4.31926 0)
(23.4785 4.35958 2.6539e-18)
(23.3728 4.40105 -5.69975e-18)
(23.2625 4.44365 0)
(23.1471 4.4874 -5.20112e-18)
(23.0265 4.53227 -2.00673e-18)
(22.9001 4.57826 2.067e-18)
(22.7678 4.62536 0)
(22.629 4.67355 2.53592e-18)
(22.4833 4.72282 -1.44489e-18)
(22.3303 4.77315 3.12945e-18)
(22.1695 4.8245 -5.11512e-18)
(22.0002 4.87685 -3.62436e-20)
(21.8219 4.93016 0)
(21.6338 4.98437 -2.36504e-18)
(21.4353 5.03943 -2.62271e-18)
(21.2255 5.09526 1.47574e-18)
(21.0033 5.15177 2.17443e-20)
(20.7679 5.20885 1.75076e-18)
(20.5181 5.26634 -4.00969e-18)
(20.2524 5.32408 1.04084e-18)
(19.9695 5.38184 2.52602e-18)
(19.6677 5.43934 -1.36299e-18)
(19.3451 5.49622 0)
(18.9995 5.55206 3.48799e-18)
(18.6283 5.60629 3.93505e-18)
(18.2288 5.65818 0)
(17.7975 5.70682 -1.30339e-18)
(17.3304 5.75099 2.32409e-20)
(16.823 5.78915 -4.91499e-18)
(16.2697 5.81923 2.85134e-18)
(15.6638 5.8385 2.16442e-18)
(14.9974 5.84326 -1.02546e-17)
(14.2608 5.82852 -1.55326e-18)
(13.4421 5.78727 -9.19117e-19)
(12.527 5.7099 -4.34275e-18)
(11.4967 5.5822 5.2085e-18)
(10.3301 5.38435 -5.81304e-18)
(8.99699 5.08533 1.04066e-18)
(7.47045 4.63898 0)
(5.70372 3.97649 0)
(3.66386 2.99075 1.89812e-18)
(1.25952 1.6465 -6.01274e-18)
(25.6959 3.52085 0)
(25.6783 3.51445 0)
(25.6764 3.53664 0)
(25.6621 3.5386 2.00456e-19)
(25.6439 3.53858 -2.68008e-18)
(25.6261 3.54325 6.00375e-18)
(25.607 3.54887 -6.55767e-18)
(25.586 3.55438 1.097e-17)
(25.5639 3.56048 1.24967e-19)
(25.5405 3.56728 0)
(25.5161 3.57467 4.88583e-18)
(25.4905 3.58264 2.71597e-18)
(25.4638 3.59123 -5.81733e-18)
(25.436 3.60045 0)
(25.4071 3.61033 3.60892e-18)
(25.3771 3.62086 -3.80365e-18)
(25.3459 3.63209 4.16354e-20)
(25.3137 3.64403 -4.59708e-18)
(25.2802 3.65671 2.42842e-20)
(25.2456 3.67014 9.24776e-20)
(25.2097 3.68436 -1.1151e-19)
(25.1725 3.69939 6.82524e-18)
(25.134 3.71524 -1.01593e-19)
(25.0941 3.73196 8.27094e-18)
(25.0528 3.74956 0)
(25.01 3.76807 0)
(24.9656 3.78752 0)
(24.9196 3.80793 0)
(24.8719 3.82933 -6.65993e-18)
(24.8225 3.85174 7.26961e-18)
(24.7712 3.87519 8.04323e-18)
(24.718 3.8997 -2.20813e-18)
(24.6628 3.9253 -4.85673e-18)
(24.6055 3.95199 2.60791e-18)
(24.546 3.97982 0)
(24.4842 4.00879 -9.69893e-18)
(24.42 4.03893 -3.62168e-18)
(24.3533 4.07024 -1.98897e-20)
(24.284 4.10276 0)
(24.2119 4.1365 6.23225e-20)
(24.1369 4.17146 0)
(24.0589 4.20767 -2.89141e-18)
(23.9776 4.24513 6.20873e-18)
(23.8929 4.28386 -3.46758e-18)
(23.8047 4.32387 -1.92316e-18)
(23.7126 4.36517 -8.23947e-20)
(23.6166 4.40776 2.23794e-18)
(23.5163 4.45166 0)
(23.4116 4.49687 -2.72988e-18)
(23.3021 4.5434 0)
(23.1875 4.59125 6.70935e-18)
(23.0676 4.64043 -1.88899e-18)
(22.942 4.69095 2.00167e-18)
(22.8104 4.7428 2.29927e-18)
(22.6722 4.79599 -4.86893e-18)
(22.5272 4.85051 -2.69371e-18)
(22.3747 4.90636 0)
(22.2143 4.96353 3.39299e-18)
(22.0455 5.02201 -1.87788e-18)
(21.8674 5.08179 0)
(21.6796 5.14282 -2.26033e-18)
(21.4811 5.20509 0)
(21.2712 5.26854 0)
(21.0489 5.33311 -1.60355e-18)
(20.8131 5.39874 3.49926e-18)
(20.5627 5.46528 2.05064e-18)
(20.2962 5.53264 9.47428e-20)
(20.0122 5.60063 7.02709e-20)
(19.7089 5.66903 0)
(19.3845 5.73753 0)
(19.0366 5.80579 -5.15118e-18)
(18.6626 5.87329 -3.8527e-18)
(18.2596 5.93943 -6.56818e-18)
(17.8239 6.00336 -1.29236e-18)
(17.3516 6.064 4.30404e-18)
(16.8377 6.11991 3.32073e-18)
(16.2763 6.16917 9.76158e-19)
(15.6606 6.2092 -5.51574e-18)
(14.982 6.23642 5.1849e-18)
(14.2301 6.24601 0)
(13.3923 6.23106 -3.60841e-18)
(12.4528 6.18198 6.66626e-18)
(11.3914 6.08435 -2.64126e-18)
(10.1846 5.91799 6.8724e-18)
(8.79812 5.65018 0)
(7.20189 5.23303 0)
(5.33488 4.59437 1.23579e-18)
(3.13941 3.62497 -2.38246e-18)
(0.655405 2.15129 -3.42595e-18)
(25.7005 3.53954 0)
(25.6819 3.53209 0)
(25.6796 3.55161 -4.25391e-18)
(25.666 3.55464 9.65081e-18)
(25.6479 3.5553 -1.04826e-17)
(25.6302 3.56013 -5.75443e-18)
(25.6114 3.56621 -3.26295e-18)
(25.5909 3.57238 3.47786e-18)
(25.5691 3.57914 1.64145e-19)
(25.5462 3.58668 -8.49304e-18)
(25.5222 3.59488 -3.12156e-20)
(25.4971 3.60372 -5.05377e-18)
(25.471 3.61323 -2.6753e-18)
(25.4438 3.62341 1.80798e-20)
(25.4156 3.6343 1.23279e-19)
(25.3862 3.64589 -7.48121e-18)
(25.3558 3.65822 8.07191e-18)
(25.3243 3.67131 1.6552e-19)
(25.2917 3.68518 -2.32752e-18)
(25.2578 3.69985 -8.04208e-18)
(25.2228 3.71535 -3.03802e-18)
(25.1864 3.73171 -3.243e-18)
(25.1488 3.74895 -3.67049e-18)
(25.1098 3.76709 2.96982e-20)
(25.0694 3.78617 -1.30573e-17)
(25.0275 3.80621 7.16525e-18)
(24.9841 3.82725 -5.1887e-18)
(24.9391 3.8493 -1.07285e-19)
(24.8924 3.8724 -3.55231e-20)
(24.844 3.89657 7.01717e-18)
(24.7937 3.92184 -7.68603e-18)
(24.7416 3.94823 -4.29514e-18)
(24.6875 3.97578 9.31924e-18)
(24.6313 4.0045 -2.50804e-18)
(24.5729 4.03443 -5.63892e-18)
(24.5122 4.06558 6.16468e-18)
(24.4491 4.09799 3.44494e-18)
(24.3836 4.13166 3.78687e-18)
(24.3154 4.16663 -4.04369e-18)
(24.2444 4.20291 2.28857e-18)
(24.1705 4.24053 0)
(24.0936 4.2795 9.75677e-20)
(24.0134 4.31984 -2.94579e-18)
(23.9298 4.36158 3.25603e-18)
(23.8427 4.40473 1.85614e-18)
(23.7517 4.44931 -4.00617e-18)
(23.6568 4.49534 2.16142e-18)
(23.5576 4.54283 2.47774e-18)
(23.4539 4.59181 -2.6446e-18)
(23.3454 4.64228 2.89042e-18)
(23.2319 4.69428 -6.49455e-18)
(23.1129 4.7478 1.82995e-18)
(22.9883 4.80288 -1.93968e-18)
(22.8575 4.85952 -2.23029e-18)
(22.7203 4.91774 7.27165e-18)
(22.576 4.97756 -5.24888e-18)
(22.4243 5.03899 -1.50727e-18)
(22.2647 5.10204 -1.62499e-18)
(22.0965 5.16672 1.84937e-18)
(21.919 5.23303 -7.98439e-18)
(21.7317 5.30098 4.43548e-18)
(21.5337 5.37055 -2.53081e-18)
(21.3241 5.44172 4.0135e-18)
(21.1019 5.51449 4.53576e-18)
(20.8661 5.58879 0)
(20.6155 5.66457 0)
(20.3487 5.74174 2.18753e-18)
(20.0641 5.82019 -2.34637e-18)
(19.7599 5.89973 2.6641e-18)
(19.4342 5.98016 0)
(19.0847 6.06118 6.25906e-20)
(18.7085 6.14238 -3.83201e-18)
(18.3028 6.22325 -1.04903e-18)
(17.8636 6.30307 1.22298e-18)
(17.3869 6.38088 0)
(16.8675 6.45539 4.94953e-18)
(16.2992 6.52486 -1.85732e-18)
(15.6748 6.58688 1.13612e-18)
(14.9852 6.63812 -2.60006e-18)
(14.2194 6.67396 1.50001e-18)
(13.3638 6.68771 3.70716e-18)
(12.4015 6.67 0)
(11.3104 6.60638 0)
(10.0647 6.47663 7.11232e-18)
(8.62567 6.24676 -9.51081e-18)
(6.96009 5.86892 0)
(4.98517 5.26989 0)
(2.67823 4.31228 -2.62398e-17)
(0.0301179 2.74364 -3.35329e-17)
(25.7048 3.55521 3.55726e-18)
(25.6855 3.54787 -8.78087e-21)
(25.6827 3.56527 -4.236e-18)
(25.6697 3.56937 0)
(25.652 3.57091 -5.25207e-18)
(25.6345 3.57611 1.1237e-17)
(25.616 3.58272 -6.10638e-18)
(25.5959 3.58958 1.19375e-19)
(25.5746 3.59707 -3.65656e-18)
(25.5522 3.60537 0)
(25.5288 3.61439 4.55972e-18)
(25.5043 3.6241 5.00961e-18)
(25.4788 3.63452 -2.61508e-18)
(25.4523 3.64566 2.72371e-18)
(25.4248 3.65755 6.53296e-18)
(25.3962 3.67019 -7.21766e-18)
(25.3666 3.68361 3.75373e-18)
(25.3358 3.69783 4.40843e-18)
(25.304 3.71287 0)
(25.271 3.72877 1.0483e-17)
(25.2368 3.74553 -5.77818e-18)
(25.2014 3.7632 9.43381e-18)
(25.1647 3.7818 0)
(25.1267 3.80135 -3.90715e-18)
(25.0872 3.82189 4.09494e-18)
(25.0464 3.84345 4.52855e-18)
(25.004 3.86604 2.57799e-18)
(24.96 3.88972 -2.83327e-18)
(24.9144 3.9145 3.11428e-18)
(24.8671 3.94041 0)
(24.8179 3.96749 3.64218e-18)
(24.7669 3.99575 -1.5496e-19)
(24.7139 4.02524 1.95891e-18)
(24.6589 4.05598 -9.9954e-20)
(24.6017 4.088 8.16007e-18)
(24.5422 4.12133 1.20411e-19)
(24.4803 4.15599 1.32205e-19)
(24.4159 4.19201 -7.06114e-18)
(24.3489 4.22942 4.0133e-18)
(24.2792 4.26825 -2.21984e-18)
(24.2065 4.30852 -9.63241e-20)
(24.1308 4.35026 5.25096e-18)
(24.0519 4.3935 -2.95631e-18)
(23.9695 4.43825 -3.24435e-18)
(23.8836 4.48455 -1.28905e-19)
(23.7938 4.53243 9.56545e-18)
(23.7001 4.5819 -4.2599e-18)
(23.6021 4.63301 2.29964e-18)
(23.4996 4.68577 0)
(23.3923 4.74021 -2.80746e-18)
(23.2799 4.79636 6.28451e-18)
(23.1621 4.85426 1.77212e-18)
(23.0386 4.91392 -3.69839e-18)
(22.909 4.97539 -2.07567e-18)
(22.7728 5.03869 0)
(22.6296 5.10386 2.62208e-18)
(22.4789 5.17092 1.01781e-19)
(22.3202 5.2399 1.02026e-19)
(22.1529 5.31084 0)
(21.9763 5.38377 7.81091e-18)
(21.7897 5.45871 0)
(21.5924 5.53568 2.38334e-18)
(21.3834 5.61469 -2.71864e-18)
(21.1617 5.69577 -3.03033e-18)
(20.9263 5.77891 -1.59373e-18)
(20.6758 5.86408 -1.83181e-18)
(20.409 5.95125 0)
(20.1242 6.04037 0)
(19.8196 6.13133 -2.67082e-18)
(19.4931 6.224 -1.52616e-18)
(19.1424 6.31815 1.71647e-18)
(18.7646 6.41348 3.85296e-18)
(18.3566 6.50958 6.60531e-18)
(17.9146 6.60589 -2.42171e-18)
(17.4341 6.70159 2.81211e-18)
(16.9098 6.79558 -5.88336e-20)
(16.3354 6.88633 3.75798e-18)
(15.7029 6.97168 0)
(15.0031 7.04857 0)
(14.2242 7.11272 -6.1516e-18)
(13.3515 7.15778 1.92391e-18)
(12.3669 7.17476 1.13618e-18)
(11.2463 7.1495 1.40351e-18)
(9.96121 7.06215 -5.59132e-18)
(8.46834 6.87804 -2.37017e-18)
(6.73029 6.55213 1.31066e-17)
(4.64027 6.00098 -2.18365e-17)
(2.24346 5.0567 -3.04902e-18)
(-0.680401 3.44689 1.90021e-19)
(25.709 3.56838 2.78997e-18)
(25.6892 3.56192 0)
(25.6858 3.57767 4.14452e-18)
(25.6734 3.58282 0)
(25.6561 3.58541 5.10277e-18)
(25.6389 3.59113 -5.37586e-18)
(25.6208 3.59835 3.00901e-18)
(25.6013 3.60596 6.67266e-18)
(25.5805 3.61421 -7.22185e-18)
(25.5587 3.62329 -1.60463e-19)
(25.5359 3.63314 4.25986e-18)
(25.512 3.64373 0)
(25.4872 3.65506 5.31419e-18)
(25.4614 3.66716 -5.83603e-18)
(25.4347 3.68004 -6.3247e-18)
(25.4069 3.69372 3.37787e-18)
(25.378 3.70821 -1.36097e-19)
(25.3482 3.72355 0)
(25.3172 3.73975 -4.5114e-18)
(25.2851 3.75685 -1.00848e-17)
(25.2519 3.77486 2.81772e-18)
(25.2174 3.79382 -6.08746e-18)
(25.1817 3.81375 -3.2861e-18)
(25.1447 3.8347 0)
(25.1063 3.85667 3.96795e-18)
(25.0665 3.87972 4.36061e-18)
(25.0252 3.90387 0)
(24.9823 3.92914 0)
(24.9379 3.95558 0)
(24.8917 3.98322 1.28276e-19)
(24.8437 4.01208 -3.47718e-18)
(24.7939 4.04221 -7.82237e-18)
(24.7421 4.07362 -4.37821e-18)
(24.6883 4.10636 4.64779e-18)
(24.6323 4.14046 -2.55557e-18)
(24.5741 4.17595 -2.81036e-18)
(24.5135 4.21286 3.21388e-18)
(24.4504 4.25122 2.59502e-19)
(24.3848 4.29107 -3.73415e-18)
(24.3163 4.33244 -6.25472e-18)
(24.245 4.37536 2.26049e-18)
(24.1706 4.41987 0)
(24.093 4.46599 -2.85196e-18)
(24.012 4.51377 3.11758e-18)
(23.9274 4.56322 -3.44055e-18)
(23.839 4.6144 -3.78992e-18)
(23.7466 4.66733 -4.04337e-18)
(23.6499 4.72206 0)
(23.5487 4.77861 -2.45883e-18)
(23.4428 4.83703 2.79975e-18)
(23.3317 4.89736 -9.43876e-20)
(23.2153 4.95965 0)
(23.0931 5.02392 1.8715e-18)
(22.9647 5.09025 4.11166e-18)
(22.8298 5.15865 -4.54896e-18)
(22.6878 5.22919 2.46561e-18)
(22.5384 5.30192 5.67272e-18)
(22.3808 5.37688 -6.07186e-18)
(22.2147 5.45414 0)
(22.0392 5.53373 -3.85872e-18)
(21.8537 5.61573 -4.17422e-18)
(21.6573 5.70017 -2.38709e-18)
(21.4492 5.78711 -2.68675e-18)
(21.2283 5.8766 1.37156e-18)
(20.9936 5.96868 4.92029e-18)
(20.7437 6.06337 -1.87684e-18)
(20.4773 6.1607 6.07211e-18)
(20.1927 6.26067 -2.36588e-18)
(19.8881 6.36325 3.87833e-18)
(19.5613 6.46836 1.46375e-18)
(19.2099 6.5759 3.36041e-18)
(18.8311 6.68568 0)
(18.4215 6.79741 2.20471e-18)
(17.9772 6.91066 -1.14192e-18)
(17.4937 7.0248 -5.68379e-18)
(16.9653 7.13894 -1.49206e-19)
(16.3854 7.25176 -3.92678e-18)
(15.7459 7.3614 1.02714e-18)
(15.0368 7.46516 2.63247e-18)
(14.2458 7.55911 1.10245e-17)
(13.3571 7.63737 -1.96139e-18)
(12.3513 7.69146 -1.17896e-17)
(11.202 7.70768 -5.92703e-18)
(9.87814 7.66675 7.81454e-18)
(8.33109 7.53394 2.2034e-17)
(6.518 7.26717 -1.72614e-17)
(4.32059 6.75875 3.27046e-17)
(1.81674 5.84983 -2.03083e-18)
(-1.41764 4.24074 2.94698e-17)
(25.7131 3.57943 5.59547e-18)
(25.6931 3.5744 3.93843e-18)
(25.689 3.5889 4.00597e-18)
(25.6771 3.59506 0)
(25.6604 3.5988 0)
(25.6434 3.60519 0)
(25.6259 3.61308 5.93013e-18)
(25.6069 3.62147 -3.01931e-18)
(25.5867 3.63052 3.43182e-18)
(25.5655 3.64041 -3.90415e-18)
(25.5434 3.65111 4.11411e-18)
(25.5203 3.66257 4.69664e-18)
(25.4962 3.67482 -4.94963e-18)
(25.4712 3.68787 0)
(25.4452 3.70173 2.97094e-18)
(25.4182 3.71643 -2.57341e-21)
(25.3903 3.73199 -3.59437e-18)
(25.3613 3.74842 -3.94661e-18)
(25.3313 3.76577 4.49735e-18)
(25.3002 3.78404 1.80878e-19)
(25.2679 3.80328 2.72283e-18)
(25.2345 3.82351 1.10754e-19)
(25.1998 3.84476 3.27649e-18)
(25.1639 3.86707 -3.46633e-18)
(25.1266 3.89047 -7.92508e-18)
(25.0879 3.91498 4.02334e-18)
(25.0477 3.94065 4.79311e-18)
(25.0061 3.96751 -7.47827e-18)
(24.9628 3.99559 -2.77913e-18)
(24.9178 4.02492 3.17367e-18)
(24.8711 4.05555 -3.35838e-18)
(24.8226 4.08751 1.54523e-19)
(24.7721 4.12084 -4.06053e-18)
(24.7196 4.15556 -9.10267e-18)
(24.6649 4.19172 2.54999e-18)
(24.6081 4.22935 -8.46086e-21)
(24.5488 4.2685 -1.23464e-19)
(24.4871 4.30919 9.93222e-18)
(24.4228 4.35146 3.74652e-18)
(24.3558 4.39536 2.21228e-18)
(24.2859 4.44092 -2.17902e-18)
(24.213 4.48818 0)
(24.1368 4.53718 2.75204e-18)
(24.0573 4.58796 1.09332e-19)
(23.9742 4.64057 3.21041e-18)
(23.8872 4.69504 3.68237e-18)
(23.7963 4.75143 -3.75808e-18)
(23.7012 4.80977 0)
(23.6015 4.87011 -1.18111e-20)
(23.4971 4.93252 -1.09953e-19)
(23.3875 4.99703 -3.11985e-18)
(23.2726 5.0637 6.52664e-18)
(23.1519 5.1326 9.15427e-21)
(23.025 5.20377 -3.92004e-18)
(22.8916 5.27729 -2.08473e-18)
(22.7511 5.35322 -4.80187e-18)
(22.6031 5.43163 2.66699e-18)
(22.4471 5.51259 -2.19868e-20)
(22.2824 5.59617 6.56256e-18)
(22.1083 5.68247 -1.89973e-18)
(21.9241 5.77154 6.22021e-18)
(21.7291 5.86349 0)
(21.5223 5.95841 0)
(21.3027 6.05636 0)
(21.0691 6.15744 -3.16514e-18)
(20.8203 6.26173 0)
(20.5548 6.36931 -4.09659e-18)
(20.2709 6.48024 4.48434e-18)
(19.9669 6.59455 -1.31396e-18)
(19.6405 6.71228 -1.51813e-18)
(19.2892 6.83341 -1.68509e-18)
(18.9101 6.95789 3.59978e-18)
(18.4999 7.08553 2.08618e-18)
(18.0544 7.21607 4.8298e-18)
(17.5689 7.34908 0)
(17.0377 7.48388 -3.30155e-18)
(16.4539 7.61945 -1.95633e-18)
(15.809 7.75424 2.18418e-18)
(15.0925 7.88593 -1.36685e-18)
(14.2915 8.01108 -4.89693e-18)
(13.3893 8.12435 0)
(12.365 8.21793 2.01138e-19)
(11.1903 8.27879 4.69867e-18)
(9.8315 8.28867 -1.25611e-17)
(8.23314 8.21348 -1.67063e-17)
(6.34768 8.00954 -1.99762e-17)
(4.03512 7.55841 2.85564e-17)
(1.39848 6.72223 -2.37947e-17)
(-2.1536 5.12744 -1.09052e-17)
(25.7171 3.5887 3.35985e-18)
(25.6971 3.58546 -1.15761e-17)
(25.6923 3.59904 -4.00282e-18)
(25.6808 3.60617 0)
(25.6647 3.61112 0)
(25.6482 3.61827 -5.08683e-18)
(25.6311 3.62691 -1.12878e-17)
(25.6128 3.63611 6.05308e-18)
(25.5932 3.64599 -3.42935e-18)
(25.5727 3.65671 0)
(25.5513 3.66826 3.97141e-18)
(25.529 3.68061 0)
(25.5057 3.69377 0)
(25.4815 3.70776 0)
(25.4564 3.7226 -2.98144e-18)
(25.4303 3.7383 6.41897e-18)
(25.4033 3.7549 3.59257e-18)
(25.3753 3.77242 -7.38158e-21)
(25.3462 3.79088 8.50593e-18)
(25.3161 3.81032 -4.3863e-18)
(25.2849 3.83076 2.61729e-18)
(25.2526 3.85224 -8.39032e-18)
(25.219 3.87479 -1.26652e-19)
(25.1842 3.89844 6.7962e-18)
(25.148 3.92322 -3.81341e-18)
(25.1105 3.94918 -8.36864e-18)
(25.0716 3.97635 1.3439e-17)
(25.0312 4.00476 1.96713e-19)
(24.9892 4.03445 2.78255e-18)
(24.9455 4.06547 -5.86702e-18)
(24.9001 4.09784 3.35902e-18)
(24.8529 4.13161 3.69338e-18)
(24.8038 4.16682 0)
(24.7526 4.2035 6.70408e-18)
(24.6994 4.2417 -7.07805e-18)
(24.644 4.28146 -2.59453e-18)
(24.5862 4.32282 2.97862e-18)
(24.526 4.36582 -3.14126e-18)
(24.4632 4.4105 -3.4639e-18)
(24.3977 4.45691 -3.80921e-18)
(24.3293 4.50509 2.18753e-18)
(24.2579 4.55509 -2.31291e-18)
(24.1834 4.60695 -1.08482e-19)
(24.1054 4.66073 2.80836e-18)
(24.0239 4.71647 -6.31201e-18)
(23.9386 4.77423 3.41342e-18)
(23.8494 4.83405 3.91311e-18)
(23.7558 4.896 6.32356e-18)
(23.6579 4.96013 -4.59031e-18)
(23.5551 5.0265 2.64211e-18)
(23.4472 5.09518 -5.60501e-18)
(23.334 5.16624 3.10089e-18)
(23.215 5.23975 -3.55776e-18)
(23.0899 5.31578 5.91692e-18)
(22.9582 5.39441 6.86746e-20)