# Force and moment coefficients
# dragDir     : (-1.000000e+00 0.000000e+00 0.000000e+00)
# sideDir     : (-0.000000e+00 -0.000000e+00 -1.000000e+00)
# liftDir     : (0.000000e+00 -1.000000e+00 0.000000e+00)
# rollAxis    : (-1.000000e+00 0.000000e+00 0.000000e+00)
# pitchAxis   : (-0.000000e+00 -0.000000e+00 -1.000000e+00)
# yawAxis     : (0.000000e+00 -1.000000e+00 0.000000e+00)
# magUInf     : 9.800000e+00
# lRef        : 1.000000e+00
# Aref        : 1.750000e+00
# CofR        : (0.000000e+00 0.000000e+00 0.000000e+00)
#
# Time        	Cd            	Cd(f)         	Cd(r)         	Cl            	Cl(f)         	Cl(r)         	CmPitch       	CmRoll        	CmYaw         	Cs            	Cs(f)         	Cs(r)         
1             	1.045282e+00	2.350434e+00	-1.305152e+00	-1.218529e+01	-1.277406e+01	5.887737e-01	-6.681418e+00	1.827793e+00	1.567923e-01	1.469441e-18	1.567923e-01	-1.567923e-01
2             	5.740888e-01	7.384262e-01	-1.643374e-01	-3.009212e+00	-3.040620e+00	3.140829e-02	-1.536014e+00	4.513818e-01	8.611333e-02	1.565111e-18	8.611333e-02	-8.611333e-02
3             	4.197942e-01	1.235892e-01	2.962049e-01	5.753856e-01	6.745907e-01	-9.920506e-02	3.868979e-01	-8.630785e-02	6.296913e-02	1.605677e-18	6.296913e-02	-6.296913e-02
4             	2.937340e-01	-6.931922e-02	3.630532e-01	1.441241e+00	1.489608e+00	-4.836698e-02	7.689877e-01	-2.161862e-01	4.406010e-02	1.623759e-18	4.406010e-02	-4.406010e-02
5             	2.320890e-01	-3.871450e-02	2.708035e-01	1.031727e+00	1.064666e+00	-3.293919e-02	5.488026e-01	-1.547590e-01	3.481335e-02	1.630111e-18	3.481335e-02	-3.481335e-02
6             	2.261586e-01	-2.858419e-02	2.547428e-01	9.444233e-01	9.782430e-01	-3.381971e-02	5.060314e-01	-1.416635e-01	3.392379e-02	1.629452e-18	3.392379e-02	-3.392379e-02
7             	2.173475e-01	-1.332352e-02	2.306710e-01	8.133152e-01	8.533852e-01	-4.007004e-02	4.467276e-01	-1.219973e-01	3.260213e-02	1.628537e-18	3.260213e-02	-3.260213e-02
8             	2.073029e-01	-2.842775e-04	2.075871e-01	6.929047e-01	7.401955e-01	-4.729073e-02	3.937431e-01	-1.039357e-01	3.109543e-02	1.627716e-18	3.109543e-02	-3.109543e-02
9             	1.569553e-01	-9.447511e-04	1.579000e-01	5.294826e-01	6.020854e-01	-7.260272e-02	3.373440e-01	-7.942240e-02	2.354329e-02	1.632181e-18	2.354329e-02	-2.354329e-02
10            	1.279983e-01	-9.986892e-03	1.379852e-01	4.932403e-01	5.615300e-01	-6.828971e-02	3.149099e-01	-7.398605e-02	1.919975e-02	1.635414e-18	1.919975e-02	-1.919975e-02
11            	1.055500e-01	-1.662115e-02	1.221712e-01	4.626410e-01	5.194398e-01	-5.679881e-02	2.881193e-01	-6.939615e-02	1.583250e-02	1.637176e-18	1.583250e-02	-1.583250e-02
12            	1.049920e-01	-1.594313e-02	1.209351e-01	4.562608e-01	5.109555e-01	-5.469462e-02	2.828250e-01	-6.843913e-02	1.574880e-02	1.637186e-18	1.574880e-02	-1.574880e-02
13            	1.035160e-01	-1.548403e-02	1.190000e-01	4.482803e-01	5.010819e-01	-5.280168e-02	2.769418e-01	-6.724204e-02	1.552740e-02	1.637174e-18	1.552740e-02	-1.552740e-02
14            	8.546611e-02	-2.312474e-02	1.085908e-01	4.390520e-01	4.835816e-01	-4.452961e-02	2.640556e-01	-6.585779e-02	1.281992e-02	1.639062e-18	1.281992e-02	-1.281992e-02
15            	7.313438e-02	-2.588913e-02	9.902351e-02	4.163755e-01	4.554675e-01	-3.909204e-02	2.472798e-01	-6.245632e-02	1.097016e-02	1.640048e-18	1.097016e-02	-1.097016e-02
16            	6.418019e-02	-2.678942e-02	9.096960e-02	3.925301e-01	4.272824e-01	-3.475237e-02	2.310174e-01	-5.887951e-02	9.627028e-03	1.640838e-18	9.627028e-03	-9.627028e-03
17            	5.723781e-02	-2.707467e-02	8.431249e-02	3.712905e-01	4.021569e-01	-3.086637e-02	2.165116e-01	-5.569358e-02	8.585672e-03	1.641582e-18	8.585672e-03	-8.585672e-03
18            	5.161739e-02	-2.711562e-02	7.873300e-02	3.528287e-01	3.802077e-01	-2.737897e-02	2.037933e-01	-5.292431e-02	7.742608e-03	1.642271e-18	7.742608e-03	-7.742608e-03
19            	4.681491e-02	-2.716264e-02	7.397756e-02	3.371340e-01	3.613970e-01	-2.426305e-02	1.928300e-01	-5.057010e-02	7.022237e-03	1.642921e-18	7.022237e-03	-7.022237e-03
20            	4.271274e-02	-2.720255e-02	6.991529e-02	3.237261e-01	3.452685e-01	-2.154242e-02	1.834055e-01	-4.855892e-02	6.406911e-03	1.643515e-18	6.406911e-03	-6.406911e-03
