/*--------------------------------*- C++ -*----------------------------------*\
  =========                 |
  \\      /  F ield         | OpenFOAM: The Open Source CFD Toolbox
   \\    /   O peration     | Website:  https://openfoam.org
    \\  /    A nd           | Version:  11
     \\/     M anipulation  |
\*---------------------------------------------------------------------------*/
FoamFile
{
    format      ascii;
    class       volScalarField;
    location    "100";
    object      p;
}
// * * * * * * * * * * * * * * * * * * * * * * * * * * * * * * * * * * * * * //

dimensions      [0 2 -2 0 0 0 0];

internalField   nonuniform List<scalar> 
31595
(
10.6535
7.32253
8.01303
8.40838
8.92271
9.21107
9.71523
10.1524
10.6423
11.134
11.6569
12.1948
12.7576
13.3424
13.9528
14.5886
15.2519
15.9431
16.6638
17.4146
18.197
19.0118
19.8604
20.7437
21.663
22.6191
23.6134
24.6466
25.7201
26.8347
27.9916
29.1919
30.4371
31.7283
33.0669
34.4542
35.8919
37.3815
38.9247
40.5236
42.1804
43.8974
45.6774
47.5232
49.4378
51.4242
53.4861
55.6267
57.8503
60.1608
62.5628
65.0611
67.6608
70.3676
73.1873
76.1269
79.1927
82.3929
85.7348
89.2275
92.8797
96.7015
100.703
104.897
109.294
113.908
118.753
123.845
129.202
134.841
140.782
147.047
153.66
160.646
168.033
175.85
184.127
192.897
202.193
212.044
222.478
233.506
245.138
257.297
269.98
282.736
295.755
306.82
318.439
8.90662
7.83302
7.60305
8.31081
8.77566
9.13593
9.58721
10.0495
10.5226
11.0129
11.5249
12.0562
12.6091
13.1847
13.7846
14.4099
15.0618
15.7414
16.4499
17.1881
17.9572
18.7583
19.5926
20.4609
21.3647
22.3049
23.2828
24.2992
25.3554
26.4525
27.5917
28.7742
30.0013
31.2743
32.5949
33.9643
35.3845
36.8568
38.383
39.9654
41.6061
43.3076
45.0726
46.9039
48.8047
50.7782
52.828
54.9576
57.1712
59.4728
61.8671
64.3589
66.9535
69.6564
72.4739
75.4125
78.4793
81.682
85.0285
88.5277
92.189
96.0225
100.039
104.25
108.669
113.309
118.185
123.313
128.711
134.398
140.396
146.726
153.415
160.489
167.977
175.911
184.325
193.254
202.733
212.797
223.478
234.792
246.752
259.287
272.385
285.59
299.05
310.492
322.178
8.06906
7.79973
7.46541
8.14255
8.64913
9.02773
9.46131
9.92315
10.3895
10.872
11.3743
11.8961
12.4385
13.0031
13.5913
14.2044
14.8436
15.51
16.2048
16.9288
17.6832
18.469
19.2873
20.1392
21.0259
21.9485
22.9082
23.9062
24.9435
26.0214
27.141
28.3037
29.5109
30.7638
32.0643
33.4137
34.8138
36.2662
37.7731
39.3363
40.9581
42.6411
44.3879
46.2015
48.085
50.0419
52.0757
54.1901
56.3892
58.6774
61.0591
63.5393
66.1234
68.817
71.6264
74.5581
77.6194
80.818
84.1622
87.6609
91.3237
95.1608
99.1837
103.404
107.836
112.492
117.388
122.542
127.971
133.696
139.738
146.122
152.874
160.023
167.599
175.637
184.174
193.247
202.897
213.162
224.079
235.671
247.955
260.867
274.387
288.071
301.991
313.888
325.552
7.73516
7.69684
7.38215
7.99217
8.52124
8.90581
9.32753
9.78122
10.2405
10.7131
11.2047
11.7156
12.2464
12.7988
13.3743
13.9741
14.5996
15.2518
15.9318
16.6406
17.3792
18.1487
18.9502
19.7847
20.6534
21.5574
22.498
23.4764
24.4938
25.5513
26.6502
27.7919
28.9777
30.2092
31.488
32.8158
34.1943
35.6252
37.1106
38.6526
40.2535
41.9157
43.6421
45.4355
47.2991
49.2365
51.2512
53.3472
55.5284
57.7994
60.1648
62.6295
65.1989
67.8788
70.6753
73.5953
76.6459
79.8351
83.1711
86.6632
90.3211
94.1553
98.1773
102.399
106.835
111.499
116.407
121.577
127.027
132.778
138.854
145.279
152.081
159.29
166.94
175.067
183.71
192.911
202.714
213.163
224.301
236.156
248.751
262.036
275.979
290.162
304.562
316.982
328.601
7.53978
7.62176
7.31541
7.86327
8.39286
8.77736
9.18503
9.62682
10.0763
10.5374
11.0168
11.5152
12.0331
12.5721
13.1337
13.7191
14.3296
14.9664
15.6305
16.3229
17.0446
17.7966
18.58
19.3959
20.2454
21.1297
22.05
23.0076
24.0036
25.0393
26.1162
27.2354
28.3985
29.607
30.8624
32.1667
33.5216
34.929
36.391
37.9096
39.4872
41.1263
42.8296
44.6001
46.4411
48.356
50.3486
52.4228
54.5827
56.8329
59.1781
61.6232
64.1737
66.8355
69.6147
72.5183
75.5534
78.728
82.0507
85.5306
89.1779
93.003
97.0179
101.235
105.669
110.333
115.245
120.423
125.886
131.655
137.755
144.212
151.055
158.315
166.029
174.235
182.974
192.293
202.24
212.864
224.214
236.326
249.23
262.887
277.26
291.957
306.857
319.865
331.651
7.41394
7.57303
7.26193
7.74725
8.26413
8.64252
9.03366
9.46036
9.89738
10.3453
10.8108
11.2954
11.7992
12.3236
12.8701
13.44
14.0345
14.6547
15.3017
15.9766
16.6803
17.4137
18.178
18.9742
19.8033
20.6667
21.5654
22.5009
23.4743
24.487
25.5403
26.6357
27.7746
28.9584
30.189
31.4681
32.7975
34.1794
35.6158
37.1088
38.6608
40.2743
41.952
43.6971
45.5127
47.4022
49.3695
51.4186
53.5537
55.7793
58.1002
60.5217
63.049
65.6881
68.4453
71.3275
74.3418
77.4965
80.8001
84.2619
87.8921
91.7017
95.7025
99.9075
104.331
108.988
113.895
119.071
124.537
130.314
136.428
142.905
149.777
157.076
164.84
173.109
181.93
191.351
201.425
212.206
223.751
236.104
249.302
263.322
278.119
293.335
308.745
322.373
334.291
7.30797
7.52763
7.21382
7.6366
8.13219
8.50014
8.87267
9.28165
9.70385
10.1369
10.5872
11.0564
11.5448
12.0535
12.5838
13.1371
13.7144
14.317
14.9459
15.6021
16.2866
17.0003
17.7442
18.5195
19.3271
20.1683
21.0443
21.9564
22.9058
23.8941
24.9224
25.9923
27.1052
28.2628
29.4667
30.7186
32.0207
33.3749
34.7834
36.2483
37.7722
39.3575
41.0069
42.7235
44.5106
46.3714
48.3101
50.3303
52.4367
54.6335
56.9259
59.319
61.8182
64.4295
67.1592
70.0143
73.0019
76.1303
79.4081
82.8448
86.4505
90.2365
94.2146
98.3983
102.802
107.441
112.332
117.496
122.952
128.723
134.836
141.318
148.201
155.52
163.313
171.625
180.504
190.001
200.175
211.086
222.794
235.357
248.818
263.17
278.369
294.09
310.02
324.281
336.277
7.20557
7.47331
7.16346
7.52552
7.99381
8.34819
8.70084
9.09006
9.49545
9.91218
10.3459
10.7986
11.2704
11.7623
12.2754
12.8109
13.3701
13.954
14.5637
15.2001
15.8642
16.557
17.2795
18.0327
18.8176
19.6355
20.4874
21.3748
22.299
23.2613
24.2632
25.306
26.3914
27.521
28.6963
29.9193
31.192
32.5164
33.8947
35.3292
36.8223
38.3767
39.995
41.6802
43.4356
45.2647
47.1711
49.159
51.2328
53.3968
55.6563
58.0163
60.4825
63.0607
65.7575
68.5797
71.5346
74.6305
77.8758
81.2801
84.8538
88.608
92.555
96.7083
101.082
105.692
110.557
115.696
121.129
126.88
132.977
139.446
146.323
153.642
161.445
169.777
178.688
188.234
198.478
209.485
221.324
234.059
247.745
262.392
277.961
294.165
310.616
325.52
337.578
7.09617
7.40065
7.1031
7.40882
7.84583
8.18448
8.51667
8.88481
9.2718
9.67101
10.087
10.522
10.9763
11.4503
11.9452
12.4621
13.0021
13.5664
14.1558
14.7714
15.4142
16.085
16.7849
17.5149
18.276
19.0693
19.8961
20.7576
21.6551
22.5902
23.5642
24.5785
25.6348
26.7346
27.8798
29.0721
30.3135
31.6061
32.9521
34.354
35.8141
37.335
38.9196
40.5708
42.2917
44.086
45.9572
47.9095
49.9472
52.0749
54.2977
56.6207
59.0496
61.5904
64.2496
67.034
69.9509
73.0087
76.216
79.5823
83.1178
86.8339
90.7429
94.8583
99.195
103.769
108.598
113.702
119.102
124.824
130.892
137.338
144.196
151.501
159.297
167.632
176.557
186.133
196.425
207.505
219.447
232.326
246.207
261.117
277.026
293.684
310.644
326.199
338.185
6.97531
7.30517
7.0272
7.28225
7.68559
8.00696
8.31864
8.66494
9.03239
9.41306
9.81043
10.2269
10.6626
11.1179
11.5937
12.091
12.611
13.1546
13.7228
14.3166
14.937
15.5848
16.2611
16.9666
17.7027
18.4703
19.2707
20.105
20.9746
21.8811
22.8257
23.81
24.8356
25.9041
27.0172
28.1769
29.3852
30.6439
31.9556
33.3224
34.747
36.232
37.7801
39.3944
41.078
42.8343
44.6671
46.5804
48.5785
50.6661
52.8481
55.1299
57.5171
60.0157
62.6322
65.3736
68.2471
71.2611
74.4243
77.7458
81.2364
84.9073
88.7707
92.8401
97.1309
101.659
106.443
111.502
116.858
122.536
128.564
134.971
141.793
149.068
156.839
165.155
174.072
183.652
193.965
205.086
217.097
230.082
244.117
259.245
275.447
292.513
309.953
326.128
337.996
6.83975
7.18412
6.93156
7.14235
7.51095
7.81391
8.10538
8.42957
8.77666
9.13804
9.51607
9.91314
10.3295
10.7652
11.221
11.698
12.1971
12.7191
13.2652
13.8362
14.4332
15.0569
15.7083
16.3884
17.0983
17.8389
18.6115
19.4174
20.2578
21.1341
22.0478
23.0005
23.9937
25.0291
26.1085
27.2336
28.4065
29.6293
30.9042
32.2336
33.6201
35.0663
36.575
38.1493
39.7922
41.5072
43.298
45.1685
47.1231
49.1663
51.3031
53.5389
55.8793
58.3303
60.8983
63.5906
66.4143
69.3776
72.4892
75.7585
79.1958
82.8126
86.621
90.6347
94.8684
99.339
104.064
109.064
114.361
119.98
125.949
132.299
139.063
146.283
154.002
162.27
171.146
180.693
190.983
202.098
214.125
227.155
241.274
256.544
272.956
290.339
308.163
324.779
337.025
6.68832
7.03672
6.81348
6.98649
7.32025
7.60404
7.87577
8.17798
8.50422
8.84576
9.20393
9.58098
9.97718
10.3926
10.8278
11.2836
11.7609
12.2606
12.7837
13.331
13.9034
14.502
15.1276
15.7811
16.4635
17.1761
17.9197
18.6958
19.5056
20.3504
21.2317
22.1512
23.1103
24.1108
25.1545
26.2431
27.3787
28.5633
29.7992
31.0888
32.4346
33.8394
35.3059
36.8371
38.4362
40.1065
41.8517
43.6758
45.583
47.5777
49.665
51.8502
54.1389
56.537
59.0513
61.6885
64.456
67.362
70.4149
73.6244
77.0008
80.5549
84.2991
88.2472
92.4139
96.8156
101.47
106.398
111.622
117.165
123.058
129.329
136.016
143.157
150.798
158.989
167.79
177.266
187.492
198.552
210.538
223.548
237.676
252.997
269.512
287.083
305.105
322.106
334.701
6.51995
6.86285
6.67123
6.81271
7.11231
7.37643
7.62903
7.90964
8.21481
8.53617
8.87412
9.23067
9.60621
10.0007
10.4146
10.8485
11.3034
11.78
12.2792
12.8019
13.3491
13.9215
14.5202
15.1461
15.8001
16.4833
17.1968
17.9419
18.7198
19.5318
20.3795
21.2643
22.1879
23.152
24.1583
25.2087
26.3051
27.4496
28.6446
29.8922
31.1952
32.5562
33.9779
35.4635
37.0161
38.639
40.3358
42.1104
43.967
45.91
47.9444
50.0754
52.3087
54.6501
57.1063
59.684
62.3907
65.2345
68.2239
71.3681
74.6775
78.1634
81.8375
85.7134
89.806
94.1316
98.708
103.555
108.696
114.155
119.96
126.143
132.738
139.787
147.334
155.43
164.136
173.518
183.653
194.627
206.535
219.479
233.559
248.861
265.385
283.011
301.077
318.277
330.207
6.33448
6.6633
6.50393
6.61965
6.88636
7.13052
7.36457
7.62412
7.90823
8.20918
8.52663
8.86234
9.21672
9.58972
9.98165
10.3931
10.8248
11.2775
11.7521
12.2495
12.7704
13.3158
13.8865
14.4837
15.108
15.7607
16.4429
17.1556
17.9003
18.6781
19.4907
20.3393
21.2256
22.1515
23.1186
24.1288
25.184
26.2863
27.438
28.6414
29.8989
31.2134
32.5876
34.0246
35.5274
37.0994
38.7442
40.4656
42.2678
44.155
46.1322
48.2045
50.3775
52.6571
55.0497
57.5622
60.2019
62.9768
65.8954
68.9671
72.2019
75.6106
79.2056
82.9996
87.0075
91.2457
95.7315
100.485
105.529
110.888
116.589
122.663
129.146
136.079
143.505
151.478
160.055
169.306
179.307
190.145
201.917
214.731
228.686
243.879
260.306
277.877
295.844
312.936
323.643
6.13132
6.43898
6.31127
6.40645
6.64194
6.86602
7.08212
7.32126
7.58448
7.86492
8.16172
8.47629
8.80912
9.16016
9.52959
9.91794
10.3258
10.754
11.2032
11.6743
12.1681
12.6855
13.2274
13.7947
14.3883
15.0094
15.659
16.3381
17.0481
17.7903
18.5661
19.377
20.2245
21.1105
22.0365
23.0046
24.0165
25.0744
26.1806
27.3372
28.5469
29.8122
31.136
32.5212
33.9711
35.4889
37.0781
38.7426
40.4863
42.3136
44.2292
46.2382
48.346
50.5584
52.8819
55.3232
57.8897
60.589
63.4297
66.421
69.5725
72.8955
76.4016
80.1036
84.0159
88.1545
92.5369
97.1828
102.114
107.354
112.931
118.876
125.223
132.012
139.288
147.102
155.512
164.585
174.398
185.038
196.601
209.194
222.918
237.874
254.047
271.38
288.837
305.695
314.721
5.91075
6.19137
6.09354
6.17267
6.37892
6.58303
6.7817
7.00114
7.24375
7.50372
7.77979
8.07306
8.38404
8.7127
9.05915
9.42385
9.80733
10.2103
10.6334
11.0775
11.5434
12.032
12.544
13.0806
13.6424
14.2307
14.8465
15.4908
16.1649
16.8702
17.6079
18.3795
19.1868
20.0311
20.9145
21.8386
22.8054
23.8169
24.8755
25.9832
27.1426
28.3564
29.6272
30.9582
32.3523
33.8129
35.3435
36.9477
38.6296
40.3934
42.2437
44.1854
46.224
48.3651
50.615
52.9803
55.4683
58.0866
60.8436
63.7483
66.8102
70.0406
73.4503
77.0522
80.8606
84.8906
89.1597
93.6871
98.4938
103.603
109.044
114.844
121.038
127.664
134.767
142.397
150.61
159.472
169.057
179.449
190.742
203.04
216.435
231.03
246.77
263.575
280.099
296.601
302.588
5.67234
5.92181
5.85128
5.91822
6.09743
6.28183
6.46356
6.66398
6.88636
7.12595
7.38125
7.65311
7.94199
8.24791
8.57097
8.91153
9.27002
9.64716
10.0435
10.4599
10.8971
11.356
11.8373
12.3421
12.8711
13.4256
14.0064
14.6146
15.2517
15.9186
16.6169
17.3478
18.1131
18.9143
19.7532
20.6315
21.5513
22.5145
23.5232
24.5799
25.6868
26.8465
28.0619
29.3358
30.6712
32.0716
33.5403
35.081
36.6975
38.3941
40.1752
42.0457
44.0108
46.0762
48.2478
50.5322
52.9365
55.4683
58.1357
60.9475
63.9134
67.0435
70.3494
73.8433
77.5391
81.4512
85.5972
89.9952
94.6659
99.6323
104.921
110.56
116.584
123.029
129.938
137.359
145.347
153.965
163.284
173.385
184.354
196.291
209.278
223.395
238.478
254.529
269.807
285.726
287.278
5.41649
5.63201
5.58549
5.64332
5.7978
5.96288
6.1281
6.31017
6.51273
6.73208
6.96666
7.217
7.48358
7.76646
8.0657
8.38162
8.7146
9.06529
9.43425
9.8222
10.2299
10.6582
11.1079
11.58
12.0752
12.5946
13.1393
13.7103
14.3088
14.936
15.5933
16.2821
17.0038
17.7601
18.5526
19.3834
20.254
21.1667
22.1235
23.1267
24.1785
25.2816
26.4386
27.6525
28.9263
30.2631
31.6664
33.1398
34.687
36.3123
38.0199
39.8145
41.7013
43.6856
45.7735
47.9712
50.2856
52.7242
55.2949
58.0062
60.8676
63.8891
67.0816
70.4571
74.029
77.8115
81.8213
86.0757
90.595
95.4011
100.519
105.977
111.806
118.043
124.727
131.906
139.63
147.959
156.961
166.71
177.288
188.78
201.232
214.692
228.895
244.043
257.661
272.759
268.672
5.14293
5.32352
5.29734
5.34848
5.48058
5.62691
5.77601
5.94035
6.12355
6.32285
6.53674
6.76555
7.00968
7.26923
7.54428
7.83511
8.14211
8.46576
8.8067
9.16555
9.54307
9.94001
10.3572
10.7956
11.256
11.7394
12.2469
12.7794
13.3381
13.9244
14.5393
15.1844
15.861
16.5708
17.3155
18.0968
18.9165
19.7767
20.6795
21.6269
22.6214
23.6655
24.7617
25.913
27.1222
28.3925
29.7273
31.1301
32.6046
34.1549
35.7851
37.4999
39.3041
41.2032
43.2026
45.3087
47.528
49.8679
52.3362
54.9406
57.6908
60.5965
63.6679
66.9167
70.3556
73.9986
77.8614
81.9607
86.3154
90.947
95.8787
101.137
106.753
112.759
119.193
126.099
133.523
141.52
150.153
159.487
169.592
180.519
192.276
204.91
218.058
232.131
243.537
257.657
244.752
4.85209
4.99809
4.98831
5.03447
5.14651
5.27479
5.40812
5.55529
5.71957
5.89901
6.09229
6.29954
6.52111
6.7571
7.00765
7.273
7.55351
7.84962
8.16191
8.49102
8.83763
9.20245
9.58639
9.99021
10.4148
10.8612
11.3303
11.8232
12.341
12.885
13.4562
14.0562
14.6863
15.348
16.0431
16.7733
17.5403
18.3461
19.1928
20.0825
21.0175
22.0002
23.0332
24.1193
25.2613
26.4623
27.7256
29.0547
30.4533
31.9251
33.4744
35.1057
36.8236
38.6331
40.54
42.55
44.6696
46.9059
49.2663
51.7586
54.3919
57.1753
60.1188
63.2341
66.5329
70.0285
73.7358
77.6708
81.8512
86.2973
91.0312
96.078
101.465
107.224
113.389
120
127.102
134.74
142.968
151.832
161.377
171.637
182.592
194.304
206.199
218.976
227.521
240.475
215.988
4.54398
4.65732
4.66002
4.70228
4.79647
4.90751
5.02541
5.15587
5.30164
5.46144
5.63418
5.81984
6.0187
6.23092
6.45663
6.69609
6.94961
7.21761
7.50067
7.79937
8.11432
8.44627
8.79607
9.16444
9.55227
9.96057
10.3902
10.8423
11.3179
11.8181
12.3443
12.8976
13.4796
14.0917
14.7354
15.4125
16.1249
16.8743
17.6627
18.4923
19.3652
20.284
21.251
22.269
23.3408
24.4693
25.6578
26.9097
28.2284
29.6179
31.082
32.6251
34.2518
35.9669
37.7758
39.6841
41.698
43.8243
46.0699
48.4428
50.9511
53.604
56.411
59.3828
62.5307
65.8675
69.407
73.1642
77.1561
81.401
85.9195
90.7351
95.8731
101.362
107.232
113.519
120.261
127.491
135.251
143.572
152.479
161.999
172.056
182.71
193.1
204.339
209.286
220.928
184.357
4.21927
4.30295
4.31429
4.35318
4.43157
4.52627
4.62904
4.7432
4.87084
5.01122
5.16347
5.32752
5.50357
5.6918
5.8924
6.10558
6.33168
6.57109
6.82431
7.09198
7.3746
7.67294
7.98779
8.31987
8.67005
9.03926
9.42845
9.8386
10.2708
10.7262
11.2058
11.7112
12.2435
12.8044
13.3953
14.0177
14.6734
15.3644
16.0926
16.86
17.6688
18.5213
19.4199
20.3673
21.3661
22.4194
23.53
24.7015
25.9371
27.2407
28.6159
30.0671
31.5985
33.2148
34.9212
36.723
38.6263
40.6372
42.7626
45.0098
47.3868
49.9023
52.565
55.3851
58.3731
61.5411
64.9019
68.4697
72.2597
76.2888
80.5761
85.1421
90.0099
95.204
100.749
106.673
113.006
119.773
127.005
134.725
142.936
151.646
160.7
170.18
178.844
188.435
189.094
199.569
145.121
3.87843
3.93661
3.95309
3.98861
4.05303
4.13234
4.2203
4.31847
4.42831
4.54944
4.68127
4.82367
4.97679
5.14085
5.31604
5.50259
5.70083
5.91114
6.134
6.36999
6.61964
6.88366
7.16275
7.45774
7.76936
8.09854
8.44623
8.81338
9.201
9.61025
10.0423
10.4983
10.9796
11.4876
12.0239
12.59
13.1875
13.8183
14.4843
15.1874
15.9299
16.7139
17.5418
18.4161
19.3394
20.3147
21.3447
22.4328
23.5822
24.7966
26.0796
27.4353
28.8678
30.3815
31.9814
33.6724
35.4604
37.3514
39.3517
41.4682
43.7087
46.0811
48.594
51.2564
54.0785
57.0712
60.2464
63.6166
67.1957
70.9989
75.0421
79.3425
83.9204
88.7959
93.988
99.5195
105.414
111.69
118.363
125.441
132.898
140.717
148.655
156.834
163.534
171.339
166.926
176.25
100.883
3.52254
3.56002
3.5785
3.61026
3.66226
3.72711
3.80054
3.88297
3.97526
4.07732
4.18872
4.3094
4.43946
4.57913
4.72862
4.88815
5.05807
5.23879
5.43071
5.63439
5.85037
6.07931
6.32191
6.57892
6.85109
7.13928
7.44441
7.76743
8.10931
8.47115
8.85407
9.25927
9.688
10.1417
10.6217
11.1296
11.6668
12.2355
12.8371
13.4738
14.1475
14.8605
15.615
16.4134
17.2583
18.1524
19.0986
20.0998
21.1594
22.2807
23.4673
24.7232
26.0521
27.4584
28.9466
30.5217
32.1888
33.9537
35.8222
37.8012
39.8976
42.1189
44.4727
46.9679
49.6135
52.4192
55.395
58.5524
61.9039
65.4621
69.2406
73.2531
77.5164
82.0473
86.8609
91.9732
97.3988
103.146
109.214
115.592
122.219
129.058
135.753
142.495
146.939
152.778
142.367
150.612
55.1611
3.15279
3.17483
3.19272
3.22001
3.26084
3.31214
3.37132
3.43817
3.51311
3.59619
3.68719
3.78606
3.89291
4.00797
4.13147
4.26365
4.40487
4.55549
4.71595
4.88676
5.06846
5.26164
5.46695
5.68516
5.91702
6.1633
6.42493
6.70281
6.99787
7.31115
7.64374
7.99678
8.37158
8.76932
9.19156
9.63961
10.115
10.6197
11.1551
11.7233
12.3262
12.966
13.6448
14.3649
15.1288
15.9392
16.7986
17.7101
18.6768
19.7018
20.7886
21.9409
23.1624
24.4572
25.8294
27.2837
28.8249
30.4585
32.19
34.0252
35.9703
38.0324
40.2187
42.537
44.9953
47.6021
50.3659
53.2968
56.4059
59.7038
63.2014
66.9103
70.844
75.0139
79.4303
84.1015
89.0326
94.2209
99.6486
105.287
111.039
116.849
122.227
127.484
129.479
133.422
116.274
124.071
-0.997279
2.77101
2.78274
2.79798
2.81989
2.85047
2.88903
2.93421
2.98558
3.04329
3.10745
3.178
3.25495
3.33842
3.42864
3.52585
3.63034
3.74245
3.86252
3.991
4.12834
4.2751
4.43185
4.59921
4.77787
4.96854
5.17207
5.38923
5.6209
5.86805
6.13165
6.41275
6.71242
7.03189
7.37234
7.73513
8.12173
8.53365
8.97239
9.43977
9.93752
10.4676
11.0319
11.6327
12.2721
12.9525
13.6763
14.4463
15.2651
16.1357
17.0612
18.0446
19.0894
20.1992
21.3778
22.6292
23.9575
25.3674
26.8637
28.4516
30.1363
31.9233
33.8192
35.8305
37.9641
40.2268
42.6261
45.1699
47.8664
50.7241
53.7517
56.9578
60.3506
63.9391
67.7298
71.7273
75.9325
80.3398
84.9348
89.6814
94.5319
99.3463
104.054
108.002
111.667
110.946
112.879
88.1585
95.4378
-56.4885
2.37943
2.38547
2.39652
2.41209
2.43304
2.45951
2.49088
2.52678
2.56729
2.61253
2.66255
2.71741
2.77729
2.84241
2.91303
2.98945
3.072
3.16105
3.257
3.36031
3.47148
3.59106
3.71967
3.85797
4.00664
4.16644
4.33813
4.5226
4.72071
4.93338
5.1616
5.40645
5.66907
5.95068
6.25241
6.57569
6.92192
7.29276
7.68968
8.11451
8.56906
9.05522
9.57503
10.1306
10.7241
11.358
12.0346
12.7567
13.527
14.3483
15.2235
16.1559
17.1487
18.2056
19.3301
20.5263
21.7981
23.1501
24.5869
26.1132
27.7344
29.456
31.2837
33.2233
35.2807
37.4623
39.7742
42.223
44.8152
47.5572
50.4545
53.5121
56.7347
60.1233
63.6764
67.3865
71.2374
75.2012
79.2221
83.2319
87.041
90.571
92.9675
94.9464
91.2131
91.132
57.9563
65.1975
-112.735
1.98078
1.98464
1.99048
1.99889
2.01051
2.02532
2.04297
2.06335
2.08658
2.1128
2.14214
2.17472
2.21074
2.25044
2.29412
2.34208
2.39463
2.45215
2.51501
2.58367
2.65858
2.74031
2.8294
2.92649
3.03222
3.14733
3.27256
3.40869
3.55656
3.71707
3.89115
4.07975
4.28404
4.50501
4.74398
5.00212
5.28089
5.58176
5.90622
6.25595
6.63269
7.03823
7.4745
7.94349
8.44731
8.9882
9.56846
10.1906
10.8571
11.5707
12.3341
13.1504
14.0225
14.9538
15.9476
17.0073
18.1368
19.3401
20.6213
21.9847
23.4349
24.9766
26.6147
28.3541
30.1996
32.1563
34.2289
36.422
38.7401
41.1873
43.7663
46.4787
49.3245
52.3001
55.3968
58.5994
61.8805
65.1991
68.4789
71.6329
74.4175
76.7609
77.5718
77.9081
71.0428
69.2749
27.1677
35.467
-183.644
1.57835
1.58179
1.58178
1.58249
1.58485
1.58811
1.59199
1.59669
1.60247
1.60949
1.61789
1.62788
1.6397
1.65363
1.66996
1.68899
1.71105
1.73646
1.76562
1.79895
1.8369
1.87998
1.92872
1.98374
2.04563
2.11506
2.19271
2.27935
2.37576
2.48279
2.60128
2.73218
2.87645
3.03526
3.20962
3.40089
3.61023
3.83914
4.08897
4.36141
4.658
4.98049
5.33068
5.71044
6.12175
6.56672
7.0475
7.56641
8.12584
8.72823
9.37618
10.0724
10.8196
11.6208
12.479
13.3973
14.3792
15.4282
16.5479
17.7421
19.0146
20.3694
21.8105
23.3416
24.9667
26.6892
28.5123
30.4388
32.4712
34.6105
36.8568
39.2079
41.6588
44.2003
46.8172
49.4848
52.1641
54.7997
57.2923
59.5356
61.2236
62.2983
61.3902
59.9653
49.6613
46.0044
-5.75211
2.83448
-239.658
1.17555
1.17854
1.17242
1.16529
1.15826
1.14982
1.13973
1.12854
1.11663
1.10416
1.09133
1.0784
1.06567
1.05344
1.04199
1.03164
1.02269
1.01546
1.01034
1.0077
1.00801
1.0117
1.01934
1.03141
1.04854
1.07133
1.10042
1.13651
1.18033
1.23259
1.29418
1.36597
1.44887
1.54382
1.65201
1.77447
1.91255
2.0674
2.24059
2.43339
2.64744
2.88434
3.14575
3.43345
3.74928
4.0952
4.47322
4.88546
5.33412
5.82149
6.34987
6.9217
7.53947
8.20579
8.92341
9.69514
10.5239
11.4128
12.3649
13.3833
14.4713
15.632
16.8683
18.1831
19.5789
21.0578
22.6214
24.2707
26.0057
27.8247
29.7246
31.6996
33.7397
35.8299
37.9473
40.0586
42.1119
44.0379
45.7125
47.0124
47.5606
47.3329
44.6277
41.4501
27.5045
22.204
-39.5481
-29.9228
-298.723
0.775889
0.776657
0.764565
0.74973
0.732985
0.712431
0.688072
0.660727
0.630818
0.59853
0.564122
0.527927
0.49028
0.451487
0.411856
0.371671
0.331225
0.290841
0.250865
0.211659
0.173653
0.137316
0.103086
0.0714958
0.0430498
0.0183179
-0.00208101
-0.0175518
-0.0274499
-0.0310192
-0.0275393
-0.0162258
0.00381508
0.0335812
0.073937
0.12603
0.190983
0.27008
0.364519
0.475734
0.605145
0.754225
0.924543
1.11775
1.33555
1.57975
1.85222
2.1549
2.48979
2.85893
3.26443
3.7084
4.19313
4.72093
5.29414
5.91523
6.58671
7.3112
8.09125
8.92944
9.82808
10.7896
11.8159
12.9089
14.0699
15.2993
16.5973
17.9627
19.3934
20.8853
22.4318
24.0227
25.6443
27.2754
28.8855
30.4321
31.8515
33.0604
33.91
34.2635
33.6663
32.1528
27.6399
22.813
5.18327
-1.34845
-73.0495
-61.5702
-369.881
0.382111
0.377889
0.360465
0.338198
0.311125
0.277833
0.238817
0.194963
0.146663
0.0941558
0.037779
-0.0220835
-0.0850644
-0.150834
-0.219097
-0.289582
-0.362026
-0.436128
-0.511554
-0.587922
-0.664854
-0.74197
-0.818795
-0.894883
-0.969739
-1.04288
-1.11379
-1.18193
-1.24662
-1.30727
-1.36324
-1.41373
-1.45795
-1.49514
-1.52426
-1.54431
-1.5543
-1.55305
-1.53934
-1.51196
-1.46959
-1.41082
-1.33423
-1.23832
-1.12149
-0.982093
-0.818413
-0.62872
-0.411206
-0.164103
0.114484
0.426443
0.773672
1.15821
1.58208
2.04737
2.55617
3.11053
3.71249
4.36385
5.06638
5.82146
6.63014
7.49299
8.40992
9.38018
10.4021
11.4724
12.5866
13.7375
14.9155
16.1067
17.2911
18.4422
19.5213
20.4768
21.2314
21.6877
21.669
21.027
19.2181
16.3524
9.91042
3.35273
-18.2057
-26.1558
-108.068
-95.8044
-418.647
-0.00303595
-0.0158511
-0.0375207
-0.0669238
-0.105188
-0.152011
-0.206155
-0.266921
-0.334054
-0.407246
-0.486028
-0.569962
-0.658677
-0.751844
-0.849175
-0.950436
-1.05537
-1.16369
-1.27507
-1.38919
-1.50568
-1.62414
-1.7442
-1.86548
-1.98755
-2.10995
-2.23222
-2.35388
-2.47444
-2.59333
-2.70986
-2.82346
-2.93339
-3.03881
-3.13893
-3.23278
-3.31939
-3.39779
-3.46686
-3.52534
-3.57214
-3.60599
-3.62552
-3.62941
-3.61615
-3.58431
-3.53236
-3.45872
-3.36188
-3.24016
-3.09208
-2.91591
-2.71004
-2.47281
-2.20247
-1.89739
-1.55589
-1.1765
-0.757718
-0.298327
0.202471
0.745214
1.33002
1.95612
2.6224
3.32634
4.06449
4.83165
5.62075
6.42212
7.22237
8.00328
8.74072
9.40091
9.93802
10.2905
10.3679
10.0596
9.15985
7.51452
4.47995
0.276982
-8.11769
-16.2973
-41.8321
-50.814
-142.509
-128.941
-472.487
-0.377672
-0.40271
-0.426999
-0.463367
-0.513981
-0.575236
-0.645013
-0.723162
-0.809673
-0.904045
-1.00568
-1.11413
-1.22902
-1.35001
-1.47685
-1.60935
-1.74724
-1.89027
-2.03814
-2.19052
-2.34708
-2.50754
-2.67151
-2.83864
-3.00859
-3.18101
-3.35549
-3.53167
-3.70907
-3.88715
-4.06547
-4.24341
-4.42029
-4.59535
-4.76798
-4.93725
-5.10213
-5.26194
-5.4155
-5.56183
-5.69988
-5.82849
-5.94642
-6.05252
-6.1454
-6.22373
-6.28626
-6.33154
-6.35835
-6.36523
-6.3509
-6.31397
-6.25311
-6.16679
-6.05383
-5.91285
-5.74277
-5.54244
-5.31119
-5.04841
-4.75415
-4.42862
-4.07285
-3.68869
-3.27881
-2.84699
-2.39859
-1.94091
-1.48306
-1.0379
-0.622092
-0.257976
0.0246112
0.186739
0.174434
-0.0829852
-0.68956
-1.7677
-3.55364
-6.20049
-10.4628
-15.975
-26.3224
-36.0093
-65.4763
-75.2206
-176.045
-161.279
-528.5
-0.739698
-0.780642
-0.805582
-0.84898
-0.913352
-0.990003
-1.07597
-1.17207
-1.27855
-1.39467
-1.51967
-1.65309
-1.79458
-1.94385
-2.10067
-2.26486
-2.43619
-2.61442
-2.79929
-2.99046
-3.18768
-3.39067
-3.59911
-3.81278
-4.03136
-4.25461
-4.48219
-4.71379
-4.94906
-5.18753
-5.42869
-5.67219
-5.91739
-6.16366
-6.41026
-6.65644
-6.90149
-7.14456
-7.38474
-7.62105
-7.85261
-8.07836
-8.29724
-8.50817
-8.71001
-8.90153
-9.08168
-9.24926
-9.40328
-9.54252
-9.66585
-9.77216
-9.86047
-9.92959
-9.97864
-10.0068
-10.0132
-9.99752
-9.95953
-9.89943
-9.81803
-9.71657
-9.59718
-9.46281
-9.31739
-9.16667
-9.01736
-8.87893
-8.76335
-8.68607
-8.66781
-8.73448
-8.92101
-9.27336
-9.85349
-10.7412
-12.0545
-13.9274
-16.6291
-20.3067
-25.8393
-32.687
-45.0588
-56.2578
-89.7367
-100.35
-209.849
-194.938
-563.178
-1.08788
-1.14773
-1.17093
-1.22172
-1.30147
-1.39449
-1.49724
-1.61194
-1.73905
-1.87747
-2.02632
-2.18519
-2.35375
-2.53173
-2.71896
-2.91526
-3.12048
-3.33436
-3.55662
-3.78701
-4.02534
-4.27136
-4.52485
-4.78561
-5.05347
-5.32823
-5.60966
-5.8975
-6.19146
-6.49119
-6.79642
-7.10665
-7.42134
-7.73991
-8.06192
-8.38668
-8.71331
-9.04122
-9.36966
-9.69781
-10.0249
-10.3498
-10.6718
-10.9899
-11.3032
-11.6105
-11.9109
-12.2037
-12.4879
-12.7624
-13.0266
-13.2796
-13.5205
-13.7487
-13.9634
-14.1644
-14.3514
-14.5243
-14.684
-14.8311
-14.9672
-15.0946
-15.2166
-15.3372
-15.4619
-15.5976
-15.753
-15.9399
-16.1723
-16.4689
-16.8533
-17.3563
-18.0182
-18.8906
-20.0432
-21.5647
-23.5871
-26.2535
-29.8678
-34.5611
-41.3511
-49.4761
-63.8425
-76.3729
-113.733
-124.82
-241.882
-226.818
-604.88
-1.42058
-1.50178
-1.52072
-1.57968
-1.67661
-1.787
-1.90715
-2.04116
-2.1896
-2.35092
-2.52414
-2.70892
-2.90499
-3.11215
-3.33021
-3.55905
-3.79855
-4.04847
-4.30853
-4.5786
-4.85847
-5.14795
-5.44695
-5.75535
-6.07306
-6.39999
-6.73592
-7.0808
-7.43435
-7.79638
-8.16651
-8.54448
-8.92985
-9.32222
-9.72085
-10.1253
-10.5352
-10.9496
-11.3682
-11.7901
-12.2145
-12.6408
-13.0681
-13.4957
-13.9227
-14.3483
-14.7719
-15.1926
-15.6098
-16.0229
-16.4311
-16.8339
-17.2309
-17.6216
-18.0057
-18.3832
-18.7544
-19.1201
-19.4815
-19.84
-20.1981
-20.5591
-20.9273
-21.3078
-21.7073
-22.1343
-22.5998
-23.1168
-23.7025
-24.3784
-25.171
-26.1159
-27.258
-28.6546
-30.3837
-32.5421
-35.2753
-38.7341
-43.2583
-48.9538
-56.9909
-66.3439
-82.6756
-96.4086
-137.475
-148.915
-272.427
-258.003
-642.998
-1.73699
-1.84078
-1.8528
-1.92116
-2.03722
-2.16588
-2.30411
-2.45823
-2.62873
-2.81355
-3.01167
-3.22287
-3.44692
-3.68367
-3.93297
-4.19477
-4.46893
-4.75525
-5.05353
-5.36359
-5.68539
-6.01877
-6.36374
-6.72031
-7.08845
-7.46813
-7.85937
-8.26204
-8.67603
-9.10127
-9.53739
-9.98421
-10.4414
-10.9085
-11.3853
-11.8712
-12.3659
-12.8686
-13.379
-13.8965
-14.4205
-14.9503
-15.4854
-16.0249
-16.5684
-17.1151
-17.6648
-18.2166
-18.7702
-19.3252
-19.8811
-20.4376
-20.9945
-21.5517
-22.1093
-22.6678
-23.2281
-23.7914
-24.3596
-24.935
-25.5209
-26.1214
-26.7419
-27.3888
-28.0702
-28.7961
-29.579
-30.4344
-31.3816
-32.4454
-33.6557
-35.0523
-36.6851
-38.6177
-40.9355
-43.7432
-47.2008
-51.4644
-56.9137
-63.6197
-72.9229
-83.4947
-101.811
-116.712
-161.39
-173.341
-302.271
-289.817
-659.927
-2.03568
-2.1624
-2.16502
-2.24454
-2.38173
-2.52955
-2.68657
-2.86164
-3.05497
-3.2639
-3.48743
-3.72551
-3.97797
-4.24472
-4.52565
-4.82076
-5.12987
-5.45285
-5.78959
-6.13996
-6.50395
-6.88155
-7.2729
-7.67803
-8.09705
-8.53005
-8.97712
-9.4383
-9.91342
-10.4026
-10.9055
-11.4221
-11.9521
-12.4953
-13.0513
-13.6199
-14.2007
-14.7932
-15.3971
-16.012
-16.6373
-17.2726
-17.9174
-18.5711
-19.2334
-19.9038
-20.582
-21.2676
-21.9605
-22.6603
-23.3668
-24.0799
-24.7999
-25.5268
-26.2614
-27.0045
-27.7574
-28.5221
-29.3009
-30.0973
-30.915
-31.7594
-32.6363
-33.5538
-34.5211
-35.55
-36.6547
-37.8523
-39.1653
-40.6207
-42.2521
-44.1032
-46.2284
-48.6977
-51.6034
-55.0573
-59.2334
-64.2899
-70.6489
-78.3315
-88.8676
-100.569
-120.797
-136.658
-184.666
-196.856
-329.583
-320.438
-683.126
-2.31596
-2.46453
-2.45547
-2.54845
-2.70877
-2.87651
-3.05311
-3.25004
-3.46696
-3.70059
-3.95005
-4.21547
-4.49676
-4.79385
-5.10672
-5.43539
-5.77974
-6.13965
-6.51503
-6.90589
-7.31233
-7.73442
-8.17242
-8.6265
-9.09687
-9.58364
-10.0871
-10.6072
-11.1442
-11.698
-12.2685
-12.8557
-13.4596
-14.0798
-14.7163
-15.3686
-16.0368
-16.7205
-17.4195
-18.1334
-18.8618
-19.6045
-20.361
-21.1309
-21.9142
-22.7106
-23.5199
-24.3419
-25.1766
-26.0237
-26.8836
-27.7562
-28.6421
-29.5418
-30.4563
-31.3871
-32.3358
-33.3051
-34.298
-35.3186
-36.3716
-37.4629
-38.5999
-39.7913
-41.0479
-42.3825
-43.8116
-45.354
-47.0342
-48.8826
-50.9361
-53.2418
-55.8593
-58.8629
-62.3524
-66.4452
-71.3297
-77.1619
-84.4094
-93.0292
-104.759
-117.498
-139.551
-156.195
-207.197
-219.512
-354.508
-348.222
-711.11
-2.57656
-2.74479
-2.72237
-2.83168
-3.01707
-3.20546
-3.40246
-3.62226
-3.86353
-4.12244
-4.39834
-4.69154
-5.00204
-5.32983
-5.67494
-6.03741
-6.41717
-6.8142
-7.2284
-7.65997
-8.10904
-8.57587
-9.0608
-9.5641
-10.0861
-10.6271
-11.1874
-11.7672
-12.3667
-12.9858
-13.6247
-14.2835
-14.9621
-15.6604