/*--------------------------------*- C++ -*----------------------------------*\
  =========                 |
  \\      /  F ield         | OpenFOAM: The Open Source CFD Toolbox
   \\    /   O peration     | Website:  https://openfoam.org
    \\  /    A nd           | Version:  11
     \\/     M anipulation  |
\*---------------------------------------------------------------------------*/
FoamFile
{
    format      ascii;
    class       volScalarField;
    location    "100";
    object      p;
}
// * * * * * * * * * * * * * * * * * * * * * * * * * * * * * * * * * * * * * //

dimensions      [0 2 -2 0 0 0 0];

internalField   nonuniform List<scalar> 
31595
(
0.166588
0.0968211
0.137443
0.138242
0.157237
0.164648
0.180461
0.190967
0.204674
0.216492
0.229509
0.241838
0.25464
0.267207
0.279958
0.292637
0.305388
0.31811
0.330841
0.343527
0.356161
0.368698
0.381109
0.393352
0.405392
0.417186
0.428697
0.439879
0.450698
0.461104
0.471065
0.480537
0.489495
0.497903
0.505747
0.513
0.519658
0.525709
0.531169
0.536046
0.540389
0.544242
0.547675
0.550756
0.553601
0.556321
0.559081
0.561995
0.565242
0.56896
0.573336
0.578578
0.584869
0.592431
0.601442
0.612156
0.624728
0.639439
0.656441
0.676008
0.698295
0.723555
0.751933
0.783612
0.818726
0.857443
0.899804
0.945844
0.995531
1.04878
1.10532
1.16481
1.22658
1.28998
1.35332
1.41605
1.47327
1.52744
1.56137
1.59601
1.56544
1.57261
1.37383
1.36547
0.749856
0.758896
-0.762117
-0.808559
-4.53582
0.137216
0.113119
0.126277
0.141597
0.154114
0.165152
0.178149
0.190074
0.202467
0.21462
0.227
0.239313
0.251753
0.264205
0.27673
0.289285
0.301888
0.314517
0.327168
0.339821
0.352454
0.365042
0.377555
0.389964
0.402235
0.41434
0.426245
0.437919
0.44933
0.46045
0.471248
0.481699
0.491781
0.501477
0.510779
0.519681
0.528185
0.536301
0.544048
0.551458
0.558579
0.565471
0.572209
0.578879
0.585593
0.592472
0.599663
0.607309
0.615574
0.624625
0.634649
0.645849
0.658424
0.672589
0.688551
0.706545
0.726781
0.749509
0.774942
0.80333
0.834893
0.869871
0.908472
0.950892
0.997318
1.04793
1.10286
1.16215
1.22586
1.29394
1.36621
1.4424
1.52195
1.60422
1.68777
1.77186
1.85219
1.93034
1.99091
2.05179
2.0516
2.08683
1.91819
1.94435
1.33715
1.40757
-0.176141
-0.141294
-3.87391
0.126899
0.118205
0.123592
0.141296
0.153189
0.164494
0.176642
0.188645
0.200533
0.212498
0.224525
0.23662
0.248795
0.26105
0.273378
0.285777
0.298241
0.310768
0.323346
0.335965
0.348607
0.361254
0.373884
0.386471
0.398993
0.411424
0.423742
0.435924
0.447948
0.459794
0.471442
0.482878
0.49409
0.505073
0.515828
0.526362
0.53669
0.546836
0.556831
0.56672
0.576558
0.586416
0.596376
0.606537
0.617013
0.627931
0.639437
0.651683
0.664837
0.679078
0.6946
0.711608
0.73031
0.750927
0.773682
0.798812
0.826556
0.857164
0.890883
0.927973
0.968684
1.01328
1.062
1.11509
1.17276
1.23525
1.30272
1.3753
1.4531
1.53613
1.62433
1.71747
1.81513
1.91675
2.02109
2.12733
2.23174
2.33512
2.42401
2.51283
2.54648
2.61097
2.48105
2.53853
1.95913
2.08034
0.452176
0.511126
-3.41255
0.126084
0.120972
0.12373
0.140614
0.15285
0.163678
0.175374
0.187091
0.198665
0.210311
0.22205
0.233881
0.245815
0.257859
0.270005
0.282251
0.294592
0.307026
0.319548
0.33215
0.344821
0.357548
0.370313
0.3831
0.39589
0.408669
0.421418
0.434125
0.446778
0.459363
0.471873
0.484304
0.496653
0.508924
0.52113
0.533289
0.545426
0.557577
0.569785
0.582106
0.594605
0.60736
0.620463
0.634021
0.648154
0.662995
0.678694
0.695411
0.713319
0.732607
0.753475
0.776132
0.800801
0.827708
0.857093
0.8892
0.924289
0.962625
1.00447
1.05012
1.09984
1.15392
1.21265
1.27629
1.34513
1.41942
1.4994
1.58526
1.67718
1.77525
1.87949
1.9898
2.10584
2.2272
2.35284
2.48193
2.61128
2.74108
2.85968
2.97835
3.04841
3.1444
3.05935
3.14802
2.61159
2.77777
1.11543
1.18007
-3.04756
0.127155
0.124187
0.12469
0.140361
0.152635
0.16298
0.174145
0.185509
0.19675
0.208059
0.219493
0.231048
0.242735
0.254561
0.266523
0.278615
0.290835
0.303182
0.315653
0.328246
0.340954
0.35377
0.366682
0.379679
0.392751
0.405887
0.419079
0.432319
0.445604
0.458931
0.472303
0.485723
0.4992
0.512747
0.526384
0.540141
0.554055
0.56817
0.582542
0.597234
0.612323
0.627895
0.644051
0.660905
0.678583
0.697228
0.716992
0.738045
0.760566
0.784753
0.810811
0.838962
0.869433
0.902468
0.938315
0.977236
1.0195
1.06541
1.11523
1.16928
1.22786
1.2913
1.3599
1.43399
1.51389
1.5999
1.69234
1.79145
1.89749
2.01065
2.13104
2.25866
2.39335
2.53479
2.68215
2.83471
2.98972
3.14697
3.29643
3.44663
3.55501
3.6848
3.64863
3.76936
3.28644
3.49288
1.80701
2.01285
-2.24935
0.128992
0.12763
0.126173
0.140406
0.152489
0.16234
0.172927
0.18388
0.194766
0.205724
0.21684
0.228109
0.239541
0.251146
0.262921
0.27486
0.28696
0.299224
0.31165
0.32424
0.336992
0.349904
0.36297
0.376185
0.389544
0.403043
0.416681
0.430456
0.444375
0.458443
0.47267
0.48707
0.501661
0.516463
0.531509
0.546834
0.562486
0.578519
0.594999
0.611999
0.629604
0.64791
0.667025
0.687071
0.708183
0.730508
0.754208
0.779459
0.806449
0.835382
0.866472
0.899952
0.936059
0.975049
1.01719
1.06275
1.11202
1.16531
1.22294
1.28522
1.3525
1.42513
1.50345
1.58785
1.67868
1.77631
1.88109
1.99339
2.11351
2.24175
2.37832
2.52336
2.67685
2.83864
3.00808
3.1846
3.3659
3.55155
3.73295
3.9164
4.06487
4.23123
4.24756
4.40319
3.98379
4.22677
2.54728
2.94938
-1.42224
0.130732
0.130926
0.127894
0.140597
0.152321
0.161685
0.171666
0.182164
0.192673
0.20327
0.214055
0.22503
0.2362
0.247577
0.25916
0.270943
0.282924
0.295104
0.307486
0.320075
0.332873
0.345883
0.359103
0.372537
0.386183
0.400045
0.414125
0.428432
0.442977
0.457774
0.472841
0.488202
0.503882
0.519913
0.536332
0.553187
0.57053
0.588427
0.606951
0.626187
0.646227
0.667175
0.68915
0.712279
0.736705
0.762583
0.790083
0.819388
0.850694
0.884214
0.920171
0.958808
1.00037
1.04514
1.09338
1.14539
1.20147
1.26196
1.32719
1.39751
1.47329
1.55492
1.64278
1.7373
1.83889
1.94795
2.06495
2.19029
2.32439
2.46761
2.62033
2.78279
2.95515
3.13742
3.3292
3.5301
3.73826
3.9532
4.16759
4.38603
4.57652
4.78279
4.85551
5.05107
4.70578
4.98703
3.34902
3.88042
-0.908765
0.132171
0.133825
0.129637
0.140798
0.152042
0.16093
0.170304
0.180317
0.190433
0.200662
0.211107
0.22178
0.232682
0.243825
0.255211
0.266835
0.278695
0.29079
0.303128
0.315714
0.328556
0.341661
0.355034
0.368681
0.38261
0.396827
0.411342
0.426171
0.441329
0.456839
0.472725
0.489021
0.50576
0.522983
0.540735
0.55907
0.578051
0.597751
0.618251
0.639643
0.66203
0.685526
0.710254
0.736351
0.763968
0.793267
0.824426
0.857635
0.893101
0.931043
0.971697
1.01531
1.06215
1.1125
1.16665
1.2249
1.2876
1.35508
1.4277
1.50585
1.58992
1.68033
1.77752
1.88195
1.99408
2.11439
2.24339
2.38161
2.5295
2.6876
2.85635
3.03617
3.22738
3.43019
3.64447
3.87003
4.1055
4.35041
4.59871
4.85366
5.08786
5.33708
5.46964
5.71003
5.44832
5.77105
4.21106
4.81912
-0.47852
0.133167
0.136155
0.131214
0.140889
0.151567
0.159996
0.168781
0.178293
0.188004
0.197861
0.207962
0.218327
0.228957
0.239861
0.251044
0.262505
0.274238
0.286246
0.298536
0.311116
0.323999
0.337194
0.350712
0.364566
0.378766
0.393327
0.408265
0.423599
0.439351
0.455551
0.472232
0.489431
0.507191
0.525564
0.544602
0.564366
0.584925
0.606361
0.628762
0.652229
0.676873
0.702815
0.730189
0.759138
0.78982
0.822406
0.857082
0.894047
0.933515
0.975716
1.02089
1.06931
1.12124
1.17698
1.23684
1.30115
1.37025
1.44451
1.52432
1.61009
1.70224
1.80123
1.90754
2.02166
2.14414
2.27551
2.41634
2.56724
2.72879
2.90161
3.08629
3.28339
3.49342
3.7168
3.95369
4.20413
4.46722
4.74266
5.02553
5.31818
5.59732
5.8918
6.08655
6.3753
6.20357
6.56798
5.10785
5.77917
0.565397
0.133679
0.137827
0.132484
0.140773
0.150825
0.158813
0.167036
0.176043
0.185343
0.194828
0.204584
0.214638
0.22499
0.23565
0.246626
0.257916
0.269517
0.281432
0.293669
0.306237
0.319152
0.332428
0.346082
0.360129
0.374588
0.389477
0.404817
0.420634
0.436957
0.453819
0.471261
0.489327
0.508068
0.527541
0.547809
0.568942
0.591015
0.614114
0.638338
0.663792
0.690596
0.718881
0.748786
0.780465
0.814083
0.849819
0.887866
0.928432
0.971739
1.01803
1.06756
1.12059
1.17742
1.23836
1.30373
1.37388
1.44918
1.53001
1.61678
1.70994
1.80994
1.91728
2.03248
2.15608
2.28867
2.43086
2.5833
2.74666
2.92165
3.10899
3.30941
3.52364
3.75239
3.99628
4.25576
4.53118
4.8221
5.12849
5.44651
5.77792
6.1032
6.44537
6.70477
7.04654
6.97158
7.38162
6.03888
6.77667
1.72484
0.133677
0.138787
0.133337
0.140368
0.149755
0.157318
0.165014
0.173522
0.18241
0.191524
0.200935
0.210676
0.220748
0.23116
0.241921
0.253033
0.264495
0.276309
0.288483
0.301029
0.313966
0.327311
0.341085
0.35531
0.370007
0.385201
0.40092
0.417193
0.434056
0.451545
0.469709
0.488598
0.508271
0.528792
0.55023
0.572663
0.596174
0.620856
0.646814
0.67416
0.703022
0.733536
0.765852
0.80013
0.836544
0.875281
0.916543
0.960544
1.00752
1.05771
1.1114
1.16885
1.23038
1.2963
1.36695
1.44271
1.52395
1.6111
1.70458
1.80486
1.91243
2.02783
2.15163
2.2844
2.42679
2.57948
2.7432
2.9187
3.10679
3.3083
3.52414
3.75519
4.00234
4.26646
4.54831
4.84855
5.16724
5.5047
5.85818
6.22914
6.60156
6.99382
7.32041
7.72107
7.75025
8.21636
7.0175
7.81063
2.50778
0.13316
0.139016
0.133696
0.139606
0.148309
0.155461
0.162667
0.170689
0.179166
0.187913
0.196983
0.206411
0.216199
0.226358
0.236899
0.247825
0.259138
0.27084
0.28294
0.295453
0.308397
0.321797
0.335674
0.350056
0.364968
0.380442
0.39651
0.413206
0.430572
0.448651
0.467494
0.487158
0.507709
0.529216
0.551758
0.575418
0.600288
0.626467
0.654065
0.683204
0.714014
0.746642
0.781243
0.817987
0.857054
0.898639
0.942954
0.99022
1.04068
1.0946
1.15224
1.2139
1.27991
1.35059
1.4263
1.50742
1.59436
1.68756
1.78747
1.8946
2.00946
2.13262
2.26469
2.40631
2.55818
2.72103
2.89566
3.08294
3.28375
3.49907
3.72993
3.97741
4.24259
4.52657
4.83044
5.15521
5.50144
5.86988
6.25881
6.66974
7.08984
7.53386
7.92937
8.39327
8.53244
9.06206
8.03784
8.87263
3.33294
0.132128
0.138507
0.1335
0.138435
0.146448
0.153202
0.159953
0.167508
0.175579
0.183965
0.192697
0.201813
0.211317
0.221219
0.231532
0.242264
0.253418
0.264996
0.27701
0.289475
0.302412
0.315847
0.329807
0.344323
0.359426
0.375151
0.391536
0.40862
0.426451
0.445075
0.464552
0.484941
0.506312
0.528744
0.552321
0.577133
0.603281
0.630869
0.660015
0.690844
0.723496
0.758121
0.794884
0.833961
0.875541
0.919828
0.967039
1.01741
1.07119
1.12864
1.19005
1.25574
1.32602
1.40125
1.4818
1.56806
1.66047
1.75949
1.86559
1.97931
2.1012
2.23186
2.37194
2.52213
2.68319
2.85592
3.04119
3.23994
3.4532
3.68203
3.9276
4.19119
4.4741
4.77767
5.1033
5.45236
5.82592
6.22522
6.64956
7.10063
7.5686
8.06526
8.53039
9.05967
9.3119
9.90547
9.07125
9.94378
4.9816
0.130587
0.137268
0.132711
0.136811
0.144142
0.150505
0.156836
0.163945
0.171617
0.179647
0.188047
0.196852
0.20607
0.215711
0.225789
0.236316
0.247297
0.258738
0.27065
0.283051
0.295961
0.30941
0.323429
0.338053
0.353315
0.369258
0.385922
0.403353
0.421603
0.440724
0.46078
0.481836
0.503966
0.527254
0.551791
0.577675
0.605011
0.633912
0.664502
0.696914
0.73129
0.76779
0.806583
0.847853
0.891796
0.938627
0.988568
1.04186
1.09877
1.15957
1.22456
1.29405
1.36839
1.44794
1.53309
1.62425
1.72187
1.82643
1.93844
2.05846
2.18707
2.32492
2.47268
2.63111
2.801
2.98323
3.17876
3.38859
3.61386
3.85577
4.11563
4.39488
4.69504
5.01772
5.36463
5.73754
6.13803
6.56787
7.02738
7.51866
8.03471
8.58528
9.1213
9.72047
10.0907
10.7594
10.1335
11.0599
6.31608
0.128538
0.135313
0.131299
0.1347
0.141366
0.147347
0.153289
0.159972
0.167256
0.174935
0.183005
0.191501
0.200431
0.209806
0.219641
0.229952
0.240747
0.252034
0.263826
0.276141
0.289003
0.302442
0.316493
0.331193
0.346582
0.362705
0.379609
0.397342
0.415961
0.435524
0.4561
0.477759
0.50058
0.524651
0.550068
0.576935
0.605365
0.635478
0.667403
0.701278
0.737256
0.775497
0.81618
0.859493
0.905642
0.954847
1.00734
1.06337
1.12321
1.18715
1.25549
1.32856
1.40671
1.49033
1.57981
1.67558
1.77812
1.88792
2.00552
2.1315
2.26648
2.41113
2.56618
2.73243
2.91071
3.10199
3.30726
3.52765
3.76437
4.01876
4.29227
4.5865
4.90319
5.24422
5.6116
6.0075
6.43404
6.89354
7.38733
7.91812
8.48152
9.0861
9.69287
10.3649
10.8553
11.6098
11.2117
12.2038
7.52083
0.12599
0.132665
0.129249
0.132078
0.138104
0.143709
0.149288
0.155569
0.162473
0.169806
0.177552
0.185739
0.194378
0.203482
0.213066
0.223149
0.233743
0.244859
0.256512
0.268719
0.281508
0.294911
0.308965
0.32371
0.33919
0.355454
0.372552
0.390538
0.409475
0.429426
0.450461
0.472657
0.496099
0.520877
0.547092
0.574855
0.604284
0.635505
0.668655
0.703879
0.741334
0.781187
0.823621
0.868833
0.917033
0.968449
1.02332
1.08191
1.1445
1.21138
1.28286
1.35929
1.44103
1.52848
1.62204
1.72218
1.82937
1.94413
2.06703
2.19867
2.33969
2.49082
2.65281
2.82651
3.01281
3.21273
3.42733
3.65783
3.90555
4.17193
4.45856
4.76722
5.09986
5.45861
5.8458
6.26399
6.71582
7.20421
7.73144
8.30096
8.91083
9.56894
10.2456
10.9913
11.6022
12.4449
12.288
13.3435
9.17184
0.122942
0.129348
0.126551
0.128924
0.134343
0.139577
0.144817
0.150718
0.15725
0.164244
0.171666
0.179544
0.187891
0.196717
0.206042
0.215884
0.22626
0.237186
0.248676
0.260753
0.273442
0.28678
0.300803
0.315558
0.331089
0.347451
0.364697
0.382887
0.402086
0.422363
0.443793
0.466456
0.490442
0.515847
0.542776
0.571343
0.601672
0.633897
0.668159
0.704611
0.743414
0.784744
0.828788
0.875748
0.925842
0.979304
1.03638
1.09735
1.16249
1.2321
1.30652
1.38609
1.47119
1.56223
1.65963
1.76387
1.87543
1.99487
2.12277
2.25976
2.40651
2.56377
2.73236
2.91313
3.10706
3.31521
3.53872
3.77888
4.0371
4.31495
4.61416
4.93667
5.28463
5.66043
6.06673
6.50644
6.98274
7.49916
8.05893
8.6663
9.32168
10.0328
10.7785
11.599
12.3306
13.2669
13.3605
14.4869
10.9255
0.119399
0.125391
0.123206
0.125225
0.130075
0.134944
0.139863
0.145403
0.151575
0.15823
0.165332
0.1729
0.180949
0.18949
0.198544
0.208132
0.218273
0.228986
0.240289
0.252207
0.264768
0.278006
0.291964
0.306689
0.32223
0.338643
0.355986
0.374324
0.393725
0.414261
0.436015
0.45907
0.483521
0.509465
0.537014
0.566287
0.597411
0.630526
0.66578
0.70333
0.743345
0.786006
0.831506
0.880054
0.931872
0.987201
1.0463
1.10944
1.17691
1.24904
1.32616
1.40863
1.49683
1.59119
1.69214
1.80018
1.91581
2.0396
2.17215
2.31411
2.4662
2.62919
2.80392
2.99131
3.19237
3.40821
3.64006
3.88927
4.15734
4.44595
4.75697
5.09249
5.45485
5.84671
6.27101
6.73105
7.23052
7.77353
8.36426
9.00787
9.70689
10.4696
11.2822
12.1777
13.0285
14.0665
14.4182
15.6369
12.4538
0.115359
0.120821
0.11922
0.120974
0.125296
0.129807
0.13442
0.139617
0.145437
0.151758
0.158538
0.165794
0.173539
0.181788
0.190559
0.199876
0.209763
0.220241
0.231333
0.243062
0.255462
0.268567
0.282422
0.297075
0.312581
0.328997
0.346386
0.364814
0.384355
0.405085
0.42709
0.450459
0.475289
0.501685
0.529762
0.559641
0.591454
0.625346
0.661469
0.699989
0.741079
0.784928
0.831732
0.881706
0.93508
0.992099
1.05303
1.11814
1.18776
1.26219
1.34178
1.4269
1.51796
1.61538
1.71961
1.83116
1.95056
2.07838
2.21525
2.36185
2.51891
2.68724
2.8677
3.06127
3.269
3.49204
3.7317
3.98939
4.2667
4.56542
4.88753
5.23529
5.61123
6.01821
6.45947
6.9387
7.46005
8.02823
8.6483
9.32632
10.0669
10.8789
11.7556
12.7243
13.6898
14.8303
15.4405
16.7561
14.2179
0.110824
0.115671
0.114606
0.116167
0.120006
0.124167
0.128486
0.133355
0.138832
0.144819
0.151276
0.158215
0.16565
0.173596
0.182072
0.191104
0.200716
0.210936
0.221787
0.233298
0.245502
0.258437
0.272149
0.286688
0.302111
0.318478
0.335856
0.354316
0.373933
0.394788
0.416969
0.440572
0.465698
0.492454
0.520961
0.551344
0.583739
0.618294
0.655167
0.694528
0.736558
0.781449
0.829406
0.880649
0.935412
0.993947
1.05652
1.12343
1.19498
1.2715
1.35335
1.44091
1.53458
1.63481
1.74207
1.85686
1.97974
2.1113
2.25219
2.4031
2.56479
2.7381
2.92393
3.12329
3.33727
3.56708
3.81408
4.07975
4.36577
4.67402
5.00662
5.36594
5.7547
6.17599
6.63333
7.13075
7.67285
8.26493
8.91289
9.62371
10.4038
11.2632
12.2011
13.2411
14.3168
15.56
16.4238
17.8387
16.1089
0.105792
0.109972
0.10938
0.110808
0.114209
0.118028
0.122062
0.126615
0.131756
0.13741
0.143541
0.150157
0.157272
0.164903
0.173068
0.181796
0.191113
0.201046
0.211628
0.222887
0.234858
0.247583
0.261109
0.275486
0.290775
0.307039
0.324347
0.342773
0.362396
0.383301
0.40558
0.42933
0.45466
0.481682
0.510513
0.541289
0.57415
0.609246
0.646738
0.686803
0.729624
0.775403
0.824347
0.876685
0.932655
0.992514
1.05654
1.12502
1.19829
1.27667
1.36053
1.45026
1.54628
1.64903
1.75901
1.87673
2.00276
2.13771
2.28223
2.43706
2.60297
2.78082
2.97155
3.17619
3.39588
3.63188
3.88559
4.15857
4.45257
4.76956
5.11175
5.48168
5.88222
6.31665
6.78875
7.3029
7.8641
8.47822
9.15193
9.89313
10.71
11.6137
12.6088
13.7172
14.8969
16.2451
17.3539
18.8881
17.757
0.100264
0.103757
0.103565
0.104903
0.107911
0.111399
0.115154
0.119402
0.124212
0.129532
0.135331
0.141617
0.148402
0.155703
0.163543
0.171946
0.180944
0.190567
0.200847
0.211819
0.22352
0.235993
0.249286
0.263454
0.278557
0.294661
0.311838
0.330165
0.349724
0.370604
0.392899
0.416712
0.442154
0.469341
0.498398
0.529458
0.562666
0.598179
0.636161
0.676791
0.720261
0.766773
0.816545
0.869808
0.926806
0.987803
1.05308
1.12294
1.1977
1.27772
1.36335
1.45501
1.55311
1.65813
1.77054
1.89089
2.01976
2.15776
2.30558
2.46396
2.6337
2.81568
3.01087
3.22033
3.44523
3.68689
3.94674
4.22642
4.52773
4.85272
5.20373
5.5834
5.99474
6.44123
6.92689
7.45637
8.0351
8.66943
9.36673
10.1358
10.9863
11.9309
12.9784
14.1501
15.4251
16.8733
18.209
19.8657
19.4907
0.0942402
0.0970571
0.0971879
0.0984656
0.101123
0.104292
0.107772
0.111721
0.116205
0.121189
0.126651
0.132596
0.139038
0.145995
0.153489
0.161548
0.170202
0.179486
0.189433
0.200082
0.211472
0.223649
0.236663
0.25057
0.265432
0.281317
0.298301
0.316462
0.335884
0.356662
0.378893
0.402681
0.428141
0.455393
0.484566
0.515798
0.549238
0.585044
0.623385
0.664445
0.708419
0.755514
0.805954
0.859973
0.917825
0.979777
1.04612
1.11715
1.1932
1.27464
1.36182
1.45517
1.55511
1.66212
1.77671
1.89941
2.03081
2.17157
2.32237
2.48396
2.65718
2.84292
3.04218
3.25604
3.48573
3.73257
3.99807
4.2839
4.59195
4.92433
5.28346
5.6721
6.09341
6.55103
7.0492
7.59283
8.1877
8.84065
9.55968
10.3544
11.2359
12.2179
13.3134
14.544
15.9057
17.4494
18.9914
20.7721
21.1411
0.0877249
0.0899067
0.0902801
0.0915124
0.0938586
0.0967216
0.0999284
0.103583
0.107742
0.112387
0.117503
0.123095
0.12918
0.135775
0.142904
0.150593
0.158877
0.16779
0.17737
0.187657
0.198694
0.210528
0.223212
0.236804
0.251367
0.266972
0.283694
0.301616
0.320826
0.341418
0.363495
0.387164
0.412541
0.439752
0.468929
0.500213
0.533755
0.56972
0.60828
0.649621
0.693941
0.741453
0.792384
0.846976
0.905485
0.968187
1.03537
1.10735
1.18446
1.26706
1.35554
1.4503
1.55179
1.66049
1.77692
1.90162
2.03521
2.17834
2.3317
2.49608
2.67232
2.86133
3.06413
3.28184
3.5157
3.76708
4.03752
4.32874
4.64268
4.98153
5.34776
5.74427
6.1743
6.64165
7.15073
7.70672
8.3157
8.9849
9.7229
10.54
11.4486
12.4636
13.6012
14.8845
16.3227
17.9558
19.6804
21.5944
22.5293
0.0807258
0.0823389
0.0828771
0.0840669
0.0861366
0.0887064
0.091641
0.0950027
0.0988365
0.103138
0.107899
0.113126
0.118837
0.12505
0.131791
0.139087
0.146972
0.155483
0.164661
0.174547
0.185188
0.196633
0.208935
0.222157
0.236362
0.251622
0.268016
0.285628
0.304549
0.324874
0.346709
0.370166
0.395363
0.422428
0.451501
0.48272
0.516243
0.552238
0.590879
0.632357
0.676874
0.724646
0.775905
0.830896
0.889881
0.953142
1.02097
1.09369
1.17164
1.25519
1.34472
1.44065
1.54343
1.65356
1.77155
1.89798
2.03345
2.17862
2.33422
2.50104
2.67992
2.87182
3.07776
3.29889
3.53647
3.7919
4.06676
4.36281
4.68204
5.02669
5.39933
5.80289
6.24076
6.71686
7.23577
7.80287
8.42451
9.10827
9.86322
10.7003
11.6329
12.6771
13.8517
15.1812
16.6851
18.3972
20.274
22.312
23.8305
0.0732551
0.0743867
0.0750174
0.0761565
0.0779788
0.0802678
0.082929
0.085996
0.0895028
0.093454
0.0978484
0.102696
0.108015
0.113826
0.120154
0.127029
0.134486
0.142562
0.151301
0.160745
0.170945
0.181951
0.19382
0.206613
0.220398
0.235249
0.251244
0.26847
0.287021
0.306996
0.328501
0.35165
0.376568
0.40338
0.43223
0.463264
0.496643
0.532533
0.571117
0.612587
0.657149
0.705021
0.75644
0.811655
0.870934
0.934561
1.00284
1.07609
1.15466
1.23893
1.32927
1.42613
1.52995
1.64124
1.76053
1.88838
2.02542
2.17233
2.32984
2.49874
2.67992
2.87432
3.08299
3.30711
3.54795
3.80695
4.08571
4.38603
4.70993
5.05972
5.43802
5.84784
6.29266
6.7765
7.30407
7.88092
8.51364
9.21008
9.97971
10.834
11.787
12.856
14.0616
15.43
16.9878
18.7667
20.764
22.9132
24.8527
0.065335
0.0660847
0.0667433
0.0678147
0.0694116
0.0714309
0.0738162
0.0765835
0.0797581
0.0833503
0.0873662
0.091818
0.096725
0.10211
0.107999
0.114423
0.121419
0.129025
0.137284
0.146244
0.155955
0.16647
0.177848
0.190153
0.203454
0.217825
0.233347
0.250109
0.268206
0.287738
0.308815
0.331554
0.35608
0.382526
0.411032
0.441751
0.474845
0.510487
0.548859
0.590157
0.63459
0.682382
0.73377
0.789008
0.848368
0.912139
0.980628
1.05416
1.1331
1.2178
1.30867
1.40614
1.51068
1.62279
1.743
1.87189
2.0101
2.15831
2.31725
2.48775
2.67067
2.867
3.07779
3.30422
3.54759
3.80937
4.09116
4.39479
4.72233
5.07612
5.4588
5.87346
6.32362
6.81337
7.34755
7.9318
8.57288
9.27885
10.0595
10.9266
11.8948
12.982
14.2106
15.6078
17.2055
19.0365
21.1237
23.374
25.5863
0.0569927
0.0574666
0.0580997
0.0590806
0.0604667
0.0622249
0.0643301
0.0667907
0.0696255
0.0728487
0.0764719
0.0805106
0.0849849
0.0899193
0.0953421
0.101285
0.107786
0.114884
0.122626
0.131058
0.140233
0.150207
0.16104
0.172797
0.185548
0.19937
0.214346
0.230566
0.248126
0.26713
0.287687
0.309917
0.33395
0.359918
0.387967
0.41825
0.450933
0.486192
0.524211
0.56519
0.609342
0.656892
0.708082
0.76317
0.82243
0.886157
0.95466
1.02827
1.10735
1.19228
1.28345
1.38131
1.48632
1.59899
1.71986
1.84953
1.98862
2.13784
2.29792
2.4697
2.65405
2.85197
3.06452
3.2929
3.53843
3.80258
4.08698
4.39348
4.72418
5.08144
5.46796
5.88684
6.34167
6.83663
7.37661
7.96736
8.61574
9.32998
10.1201
10.9981
11.9791
13.0817
14.3288
15.749
17.3771
19.2476
21.3969
23.7274
26.0778
0.0482703
0.0485677
0.0491322
0.0499963
0.0511786
0.0526805
0.0544994
0.056643
0.0591273
0.0619687
0.0651831
0.0687886
0.0728075
0.0772657
0.0821925
0.0876221
0.0935922
0.100144
0.107325
0.115184
0.123773
0.133153
0.143382
0.154529
0.166665
0.179868
0.194222
0.209817
0.226754
0.245137
0.265078
0.286698
0.310127
0.335503
0.362973
0.392693
0.424831
0.459566
0.497082
0.537589
0.581297
0.628436
0.679252
0.734004
0.792973
0.856454
0.924763
0.998239
1.07724
1.16215
1.25338
1.35136
1.45658
1.56954
1.6908
1.82094
1.96061
2.11052
2.27141
2.44412
2.62954
2.82866
3.04257
3.27247
3.51971
3.78575
4.07225
4.38107
4.71434
5.07444
5.46409
5.88645
6.34511
6.84431
7.38897
7.98493
8.63913
9.35987
10.1573
11.0436
12.034
13.1473
14.4069
15.8416
17.4873
19.3789
21.5562
23.9225
26.2588
0.0392188
0.0394224
0.0398878
0.0406087
0.0415865
0.0428322
0.0443561
0.04617
0.0482903
0.0507348
0.0535221
0.0566731
0.0602117
0.0641653
0.0685649
0.073446
0.0788475
0.0848124
0.0913878
0.0986248
0.106578
0.115306
0.124872
0.135342
0.146792
0.159299
0.17295
0.187835
0.204056
0.221719
0.240939
0.261839
0.284549
0.309207
0.335966
0.364983
0.396429
0.430481
0.467335
0.507193
0.550273
0.596807
0.647043
0.701245
0.759694
0.822691
0.890554
0.963625
1.04227
1.12686
1.21783
1.31561
1.42068
1.53356
1.6548
1.785
1.92481
2.07492
2.23611
2.40919
2.59508
2.79477
3.00935
3.24003
3.48815
3.75519
4.04281
4.35289
4.68756
5.04918
5.4405
5.86468
6.32532
6.82664
7.37359
7.97201
8.62883
9.35236
10.1527
11.042
12.0354
13.1517
14.414
15.8507
17.4969
19.3863
21.5551
23.9029
26.2104
0.0299066
0.0300655
0.0304105
0.030967
0.0317333
0.0327163
0.0339333
0.0354029
0.0371431
0.0391727
0.0415125
0.0441856
0.0472175
0.0506369
0.0544765
0.0587729
0.0635664
0.0689015
0.0748265
0.0813927
0.0886559
0.0966764
0.105517
0.115247
0.12594
0.137676
0.150543
0.164634
0.180049
0.196897
0.215294
0.235364
0.25724
0.281066
0.306988
0.335169
0.365782
0.399009
0.435044
0.474093
0.516378
0.562132
0.611605
0.665066
0.722798
0.785105
0.85231
0.924754
1.0028
1.08685
1.17731
1.27463
1.37929
1.49181
1.61275
1.74271
1.88234
2.03234
2.19349
2.36661
2.55261
2.75249
2.96735
3.1984
3.44697
3.71456
4.00282
4.31363
4.64912
5.01167
5.40402
5.82929
6.2911
6.79369
7.34196
7.94171
8.59984
9.32459
10.1259
11.016
12.0096
13.1251
14.385
15.8168
17.4531
19.3244
21.4551
23.7362
25.9419
0.0204047
0.0205303
0.0207433
0.0211206
0.0216623
0.0223692
0.0232638
0.0243713
0.0257121
0.0273059
0.0291749
0.0313437
0.0338394
0.0366923
0.0399362
0.0436093
0.0477531
0.0524132
0.0576388
0.0634829
0.0700014
0.0772536
0.0853046
0.0942239
0.104087
0.114973
0.126972
0.140176
0.154689
0.170621
0.188088
0.207217
0.22814
0.251001
0.275954
0.303159
0.332791
0.365036
0.40009
0.438159
0.479468
0.524254
0.572769
0.625284
0.682086
0.743481
0.809794
0.88137
0.958578
1.04181
1.13149
1.22807
1.33202
1.44388
1.5642
1.69359
1.8327
1.98224
2.14298
2.31574
2.50146
2.70112
2.91581
3.14676
3.39529
3.6629
3.95124
4.26221
4.59789
4.96068
5.35332
5.77889
6.241
6.74386
7.29233
7.89216
8.55014
9.27443
10.0748
10.9631
11.9538
13.0645
14.3167
15.7362
17.3514
19.1889
21.2517
23.4364
25.4103
0.0107956
0.0108557
0.0109339
0.0111247
0.0114238
0.0118341
0.0123872
0.0131132
0.0140335
0.0151678
0.0165403
0.0181768
0.0201054
0.0223575
0.0249688
0.0279784
0.0314296
0.0353689
0.0398464
0.0449147
0.0506306
0.0570547
0.0642509
0.0722887
0.0812437
0.0911983
0.102241
0.114467
0.12798
0.142889
0.159315
0.177384
0.197228
0.218995
0.242838
0.268919
0.297415
0.328512
0.362408
0.399314
0.439453
0.483067
0.53041
0.581755
0.637391
0.697626
0.762786
0.833219
0.909296
0.991413
1.07999
1.17549
1.27838
1.3892
1.5085
1.6369
1.77505
1.92365
2.08347
2.25535
2.4402
2.63901
2.85287
3.08299
3.33071
3.59749
3.885
4.1951
4.52986
4.89167
5.2832
5.70754
6.16825
6.66944
7.21589
7.81325
8.46816
9.18856
9.98392
10.8657
11.8476
12.9465
14.182
15.578
17.1568
18.9427
20.9083
22.9837
24.6064
0.00114912
0.00108205
0.00103475
0.001036
0.00106753
0.00115524
0.00134553
0.00166927
0.00214531
0.00279503
0.00364385
0.00471823
0.00604719
0.00766362
0.00960445
0.0119102
0.0146258
0.0177984
0.0214785
0.025719
0.0305765
0.0361101
0.0423849
0.0494712
0.0574443
0.0663866
0.0763881
0.0875448
0.0999608
0.113747
0.129022
0.145914
0.164559
0.185103
0.207701
0.232515
0.259726
0.28952
0.322095
0.357665
0.396455
0.438709
0.484684
0.534653
0.588909
0.647762
0.711538
0.780589
0.855285
0.936025
1.02323
1.11736
1.2189
1.32838
1.44636
1.57345
1.71029
1.8576
2.01614
2.18675
2.37033
2.56786
2.78044
3.00927
3.25566
3.52108
3.80718
4.1158
4.44897
4.80905
5.1987
5.62093
6.07924
6.57764
7.12082
7.71426
8.36443
9.07895
9.86692
10.7392
11.7088
12.7913
14.0041
15.3689
16.9001
18.6219
20.4641
22.4176
23.5874
-0.0084646
-0.00874663
-0.00889904
-0.00908912
-0.00935681
-0.00962231
-0.00981825
-0.00992023
-0.00991384
-0.00977662
-0.0094812
-0.00900037
-0.00830465
-0.00736057
-0.00612919
-0.00456856
-0.00263252
-0.000273435
0.00255884
0.00591759
0.00985826
0.0144396
0.0197267
0.0257886
0.0327023
0.0405499
0.0494223
0.0594164
0.0706351
0.0831915
0.0972066
0.112805
0.130124
0.149312
0.170524
0.193926
0.219695
0.248019
0.279099
0.313151
0.350403
0.391099
0.435499
0.483877
0.536527
0.593761
0.655907
0.723317
0.796363
0.875445
0.960992
1.05346
1.15333
1.26115
1.37746
1.50287
1.63804
1.78367
1.94053
2.10944
2.2913
2.48709
2.6979
2.9249
3.16942
3.4329
3.71696
4.02342
4.35428
4.71186
5.09876
5.51794
5.97281
6.46727
7.00589
7.59396
8.23769
8.94438
9.72266
10.5828
11.5366
12.5985
13.7833
15.1104
16.584
18.2316
19.9275
21.7509
22.4748
-0.0179932
-0.0185866
-0.0188093
-0.0191935
-0.0197991
-0.0204517
-0.021059
-0.0216119
-0.0221032
-0.0225078
-0.0227962
-0.0229421
-0.0229153
-0.0226806
-0.0221982
-0.0214235
-0.0203111
-0.0188125
-0.0168772
-0.0144537
-0.0114883
-0.00792217
-0.00369123
0.00127413
0.00705024
0.0137204
0.0213752
0.0301121
0.0400347
0.0512559
0.0638938
0.0780777
0.0939457
0.111644
0.131326
0.153161
0.177328
0.204014
0.233423
0.26577
0.301286
0.340217
0.382824
0.429383
0.480188
0.535551
0.595802
0.661294
0.732401
0.809525
0.893094
0.983565
1.08143
1.1872
1.30146
1.4248
1.55787
1.70137
1.85605
2.02275
2.20235
2.39582
2.60424
2.82876
3.07069
3.33145
3.61263
3.91601
4.24357
4.59756
4.98049
5.39528
5.8452
6.33405
6.8662
7.44673
8.08154
8.77755
9.54281
10.3868
11.3203
12.3561
13.5061
14.7877
16.1932
17.7582
19.2888
20.9872
21.1611
-0.0273815
-0.0283878
-0.0286348
-0.0292209
-0.0302103
-0.0312865
-0.0323309
-0.0333619
-0.0343811
-0.0353586
-0.0362634
-0.0370697
-0.0377477
-0.0382608
-0.0385666
-0.0386196
-0.038374
-0.037782
-0.0367931
-0.0353596
-0.0334277
-0.0309389
-0.0278314
-0.0240348
-0.0194731
-0.0140628
-0.00771219
-0.000326209
0.00820094
0.01798
0.0291318
0.0417829
0.0560714
0.0721429
0.0901574
0.110279
0.132685
0.157569
0.185131
0.215591
0.249182
0.28615
0.326757
0.37128
0.420012
0.473268
0.531378
0.594695
0.663598
0.738487
0.819791
0.907969
1.00351
1.10693
1.2188
1.33971
1.47032
1.61131
1.76343
1.92751
2.10441
2.29511
2.50065
2.72219
2.96099
3.21846
3.49615
3.79579
4.11933
4.46894
4.84707
5.25654
5.7005
6.1826
6.707
7.27852
7.90276
8.58615
9.33612
10.1613
11.0712
12.0772
13.1874
14.4183
15.7477
17.2245
18.5742
20.1483
19.7497
-0.0365914
-0.0381014
-0.0383143
-0.0391168
-0.0405426
-0.0420796
-0.0435884
-0.0451268
-0.0467058
-0.0482892
-0.049844
-0.0513468
-0.0527663
-0.054065
-0.0551982
-0.0561204
-0.0567851
-0.0571456
-0.0571548
-0.0567643
-0.0559245
-0.054577
-0.0526604
-0.0501062
-0.0468367
-0.0427684
-0.0378119
-0.0318702
-0.0248391
-0.0166093
-0.00705969
0.00393742
0.0165185
0.0308298
0.0470282
0.0652802
0.0857646
0.108674
0.134212
0.162599
0.194068
0.228867
0.267256
0.309517
0.35594
0.406842
0.462552
0.523429
0.589846
0.662211
0.740951
0.826521
0.919412
1.02014
1.12927
1.2474
1.37515
1.51323
1.66238
1.8234
1.99715
2.18459
2.38675
2.60476
2.83987
3.09344
3.367
3.66222
3.98101
4.32545
4.69791
5.1011
5.53804
6.01222
6.52757
7.08865
7.70064
8.36951
9.102
9.90588
10.7891
11.7617
12.8277
14.0029
15.2487
16.6321
17.7889
19.2392
18.4172
-0.0455786
-0.0476708
-0.047784
-0.0488274
-0.0507477
-0.052783
-0.054784
-0.0568615
-0.0590348
-0.0612578
-0.0634974
-0.0657317
-0.06793
-0.0700524
-0.0720519
-0.0738837
-0.0755009
-0.0768592
-0.0779154
-0.0786227
-0.0789326
-0.0787889
-0.0781323