/*--------------------------------*- C++ -*----------------------------------*\
  =========                 |
  \\      /  F ield         | OpenFOAM: The Open Source CFD Toolbox
   \\    /   O peration     | Website:  https://openfoam.org
    \\  /    A nd           | Version:  11
     \\/     M anipulation  |
\*---------------------------------------------------------------------------*/
FoamFile
{
    format      ascii;
    class       surfaceScalarField;
    location    "100";
    object      phi;
}
// * * * * * * * * * * * * * * * * * * * * * * * * * * * * * * * * * * * * * //

dimensions      [0 3 -1 0 0 0 0];

internalField   nonuniform List<scalar> 
62845
(
423581
-1.89714e+06
1.90941e+06
398611
-1.80473e+06
1.82971e+06
380728
-1.7141e+06
1.73199e+06
361191
-1.62783e+06
1.64737e+06
343426
-1.5458e+06
1.56356e+06
325999
-1.46782e+06
1.48525e+06
309715
-1.39355e+06
1.40983e+06
294109
-1.32294e+06
1.33855e+06
279291
-1.25581e+06
1.27063e+06
265183
-1.19203e+06
1.20614e+06
251822
-1.13146e+06
1.14482e+06
239159
-1.0739e+06
1.08656e+06
227036
-1.01915e+06
1.03127e+06
215633
-967273
978676
204680
-917854
928807
194413
-871051
881318
184561
-826456
836308
175212
-784222
793571
166399
-744093
752906
158008
-705918
714308
149977
-669694
677726
142439
-635369
642906
135236
-602639
609842
128404
-571654
578486
121932
-542210
548682
115759
-514205
520379
109924
-487688
493522
104370
-462457
468011
99135.2
-438558
443793
94061.7
-415741
420814
89341.5
-394205
398925
84816.4
-373696
378221
80527.9
-354264
358552
76469.5
-335758
339816
72584.9
-318226
322110
68916.6
-301566
305234
65408.6
-285777
289285
62105
-270759
274063
58950.3
-256504
259659
55949.2
-242983
245984
53096.5
-230147
232999
50387.4
-217962
220671
47807.5
-206391
208971
45357.3
-195414
197864
43023.2
-184988
187322
40805.7
-175094
177312
38687.2
-165701
167820
36678.1
-156792
158801
34761.1
-148326
150243
32937.9
-140298
142121
31200.6
-132672
134410
29546.5
-125437
127091
27963.6
-118563
120146
26463.4
-112048
113548
25029.5
-105857
107290
23659.9
-99974
101344
22356.8
-94398.2
95701.1
21109.4
-89099.7
90347
19924.5
-84067.5
85252.3
18791.4
-79290.7
80423.7
17708.5
-74754
75836.8
16673.9
-70442
71476.4
15686.2
-66348.5
67336.1
14743.8
-62458.3
63400.6
13841
-58760.8
59663.6
12980.5
-55245.4
56105.8
12152.7
-51901.7
52729.4
11360.4
-48723.2
49515.4
10606.4
-45703.5
46457.4
9881.32
-42820.2
43545.2
9184.01
-40078.9
40776.2
8517.22
-37465.5
38132.2
7879.69
-34977.2
35614.7
7262.68
-32596.1
33213.1
6672.47
-30323.5
30913.7
6101.27
-28151.5
28722.6
5551.58
-26069.6
26619.3
5020.74
-24073.2
24604
4507.15
-22153.7
22667.3
4009.18
-20304.9
20802.9
3525.29
-18519.3
19003.1
3053.95
-16789.2
17260.5
2593.87
-15107.1
15567.2
2143.56
-13465.6
13915.9
1701.1
-11856.2
12298.7
1269.4
-10273.1
10704.8
840.191
-8709.42
9138.64
441.281
-7163.35
7561.98
-5678.99
6120.12
515209
-1.87313e+06
489360
-1.77888e+06
465151
-1.68989e+06
441966
-1.60465e+06
419821
-1.52365e+06
398666
-1.44666e+06
378600
-1.37348e+06
359500
-1.30384e+06
341326
-1.23763e+06
324101
-1.17481e+06
307707
-1.11506e+06
292124
-1.05832e+06
277385
-1.00441e+06
263317
-953204
250005
-904543
237330
-858376
225326
-814452
213876
-772772
203016
-733233
192731
-695633
183006
-659970
173679
-626041
164888
-593848
156469
-563235
148513
-534253
141007
-506700
133843
-480524
127009
-455623
120496
-432045
114397
-409642
108601
-388408
103052
-368147
97742.1
-348954
92762.1
-330778
88006.8
-313470
83518.6
-297078
79242.8
-281501
75172
-266688
71286.4
-252619
67614.3
-239311
64117.4
-226650
60795.2
-214640
57637.4
-203233
54631.2
-192407
51771
-182128
49053.8
-172377
46470.6
-163118
44008.5
-154330
41668.7
-145987
39438.5
-138068
37319.7
-130554
35300
-123418
33381.2
-116644
31546.9
-110213
29799.2
-104109
28140.4
-98315.3
26554.6
-92812.4
25044
-87589.2
23602.5
-82626
22227.8
-77916.2
20918.3
-73444.6
19667.8
-69191.6
18478.9
-65159.7
17337
-61316.5
16249.3
-57673.1
15214
-54210.2
14225.5
-50913.3
13278.4
-47776.1
12371.3
-44796.5
11502.9
-41951.8
10675.8
-39251.9
9884.78
-36674.5
9120.85
-34213.3
8390.52
-31865.8
7692.38
-29625.4
7020.35
-27479.5
6373.57
-25422.9
5750.75
-23450.4
5149.86
-21552.9
4569.23
-19724.3
4007.05
-17957.1
3461.59
-16243.8
2930.82
-14576.4
2413.6
-12948.4
1907.64
-11350.2
1414.61
-9780.01
929.535
-8224.28
472.58
-6706.64
-5206.7
608061
-1.84179e+06
577894
-1.74871e+06
548955
-1.66095e+06
521415
-1.5771e+06
495238
-1.49747e+06
470270
-1.42169e+06
446512
-1.34972e+06
423950
-1.28128e+06
402514
-1.2162e+06
382127
-1.15442e+06
362779
-1.09572e+06
344395
-1.03993e+06
326957
-986975
310345
-936592
294590
-888788
279627
-843412
265436
-800261
252002
-759339
239160
-720391
226994
-683467
215390
-648365
204437
-615088
194020
-583431
184178
-553393
174748
-524824
165821
-497773
157336
-472038
149332
-447619
141702
-424415
134435
-402374
127474
-381447
120958
-361631
114781
-342778
108838
-324835
103269
-307902
97918.5
-291727
92831.2
-276414
88008.8
-261866
83461.7
-248072
79111.3
-234960
74984.8
-222524
71058
-210713
67322.9
-199498
63778.3
-188863
60406
-178756
57197.7
-169169
54149.1
-160069
51246.7
-151427
48486.8
-143227
45857.7
-135439
43355.5
-128052
40977.6
-121040
38711.4
-114378
36559.3
-108061
34504.6
-102054
32549.7
-96360.4
30692.1
-90954.8
28916.1
-85813.4
27228.5
-80938.4
25622.9
-76310.7
24084
-71905.7
22623.3
-67730.9
21225.8
-63762.2
19902.8
-59993.6
18635.5
-56405.8
17422.5
-52997.2
16266.2
-49757.1
15165.3
-46675.2
14110.2
-43741.4
13107.4
-40949
12147.5
-38292.1
11225.5
-35752.4
10347.5
-33335.4
9508.43
-31026.8
8699.87
-28816.9
7925.69
-26705.3
7183.76
-24680.9
6470.19
-22736.8
5783.58
-20866.3
5122.07
-19062.8
4482.89
-17317.9
3864.46
-15625.3
3264.58
-13976.5
2681.56
-12365.4
2113.38
-10782
1560.19
-9226.78
1020.27
-7684.28
508.546
-6195
-4698.07
699934
-1.80488e+06
664874
-1.71365e+06
631402
-1.62747e+06
599643
-1.54534e+06
569327
-1.46715e+06
540602
-1.39297e+06
513288
-1.32241e+06
487275
-1.25527e+06
462640
-1.19156e+06
439176
-1.13096e+06
416892
-1.07343e+06
395777
-1.01882e+06
375610
-966807
356573
-917555
338445
-870660
321260
-826227
304898
-783900
289346
-743786
274635
-705680
260653
-669484
247335
-635048
234717
-602470
222736
-571450
211331
-541988
200540
-514033
190252
-487485
180506
-462292
171243
-438356
162452
-415625
154075
-393998
146155
-373527
138632
-354108
131448
-335594
124648
-318034
118172
-301426
112064
-285620
106219
-270569
100682
-256329
95415.6
-242805
90418.3
-229963
85662.6
-217768
81142.2
-206193
76852.2
-195209
72764.7
-184775
68885.9
-174877
65199.1
-165482
61687.6
-156558
58352.9
-148093
55177.6
-140052
52161.2
-132423
49293.2
-125184
46559.2
-118306
43962.7
-111782
41486
-105585
39136
-99704.3
36891.7
-94116.2
34755.6
-88818.7
32729.5
-83787.3
30793.6
-79002.6
28950
-74467.1
27201.4
-70157.1
25527.9
-66057.5
23936.8
-62171.1
22413
-58469.9
20968
-54960.9
19591.3
-51620.5
18277.1
-48443
17020.1
-45418.2
15826.4
-42547.7
14682.8
-39805.4
13591.6
-37201
12551.6
-34712.4
11553.4
-32337.2
10599.6
-30073
9690.94
-27908.3
8819.26
-25833.7
7983.2
-23844.9
7181.3
-21935
6410.99
-20096
5669.72
-18321.6
4955.79
-16604
4266.01
-14935.6
3598.88
-13309.4
2951.63
-11718.1
2322.49
-10152.9
1711.03
-8615.29
1115.95
-7089.09
549.152
-5628.42
-4149.12
789795
-1.76289e+06
750064
-1.67392e+06
712180
-1.58959e+06
676222
-1.50938e+06
642109
-1.43304e+06
609583
-1.36044e+06
578691
-1.29152e+06
549411
-1.22599e+06
521562
-1.16371e+06
495124
-1.10452e+06
470033
-1.04834e+06
446108
-994892
423481
-944180
401940
-896014
381504
-850225
362066
-806788
343650
-765485
326144
-726279
309481
-689017
293697
-653700
278727
-620077
264456
-588200
250924
-557918
238118
-529182
225925
-501840
214334
-475895
203337
-451295
192873
-427892
182931
-405683
173504
-384571
164582
-364604
156007
-345534
147973
-327560
140320
-310381
132994
-294099
126036
-278663
119491
-264023
113237
-250075
107299
-236867
101651
-224315
96284.4
-212401
91189.1
-201097
86344.4
-190364
81741.3
-180172
77361.3
-170497
73199.6
-161321
69244
-152602
65480.2
-144329
61903.9
-136475
58504.1
-129023
55266.4
-121946
52189.1
-115228
49258.3
-108851
46476.9
-102803
43823.5
-97050.9
41305
-91597.7
38904.8
-86418.6
36616.2
-81498.8
34445.9
-76832.3
32373.9
-72395.2
30402.5
-68185.8
28525.4
-64180.4
26736.1
-60381.9
25033.1
-56766.8
23410
-53337.8
21860.9
-50071.5
20388.5
-46970.6
18986.6
-44016.3
17641.6
-41202.8
16364.1
-38528
15144.5
-35981.4
13977.2
-33545.1
12868.6
-31228.6
11805.8
-29010.1
10789.3
-26891.8
9816.66
-24861.1
8885.91
-22914.2
7993.07
-21042.1
7136.75
-19239.7
6313.59
-17498.4
5520.82
-15811.3
4756.23
-14171
4016.96
-12570.1
3300.47
-11001.6
2604.49
-9456.9
1927.3
-7938.05
1269.25
-6430.93
637.793
-4997.05
-3511.27
877484
-1.71615e+06
833167
-1.6296e+06
791084
-1.5475e+06
751046
-1.46934e+06
713059
-1.39505e+06
676969
-1.32435e+06
642680
-1.25723e+06
610106
-1.19341e+06
579117
-1.13272e+06
549735
-1.07514e+06
521808
-1.02041e+06
495350
-968434
470136
-918966
446252
-872130
423538
-827511
401958
-785208
381452
-744978
362014
-706842
343560
-670563
325988
-636128
309328
-603418
293520
-572392
278499
-542897
264202
-514885
250619
-488257
237789
-463065
225501
-439007
213894
-416285
202860
-394650
192441
-374151
182426
-354589
173058
-336166
164030
-318531
155484
-301835
147412
-286028
139710
-270961
132370
-256683
125441
-243146
118833
-230259
112560
-218043
106604
-206444
100937
-195431
95551.5
-184978
90437.2
-175058
85575.7
-165636
80949
-156694
76556.9
-148210
72380.9
-140153
68409.8
-132504
64629
-125242
61039
-118356
57624.8
-111814
54373.6
-105600
51282
-99711.7
48346.4
-94115.4
45547.2
-88798.5
42885.7
-83757.1
40355.4
-78968.6
37944.7
-74421.7
35651.4
-70101.9
33464.2
-65998.7
31390.4
-62106.6
29410.1
-58401.7
27530.2
-54886.9
25731.5
-51539.1
24025.1
-48365.2
22392.4
-45338
20840.1
-42464
19362.4
-39725.1
17953.3
-37119
16603.6
-34631.7
15323.4
-32264.9
14099.3
-30004.6
12929.8
-27840.7
11810.4
-25772.3
10741.6
-23792.3
9719
-21891.6
8739.79
-20062.9
7800.77
-18300.7
6899.12
-16596.8
6031.9
-14944.1
5196.09
-13335.2
4388.88
-11762.9
3606.87
-10219.6
2847.69
-8697.72
2108.92
-7199.22
1391.08
-5712.95
697.445
-4303.62
-2813.96
962675
-1.66492e+06
913960
-1.58088e+06
867696
-1.50124e+06
823830
-1.42548e+06
782050
-1.35327e+06
742456
-1.28476e+06
704797
-1.21957e+06
669051
-1.15767e+06
635151
-1.09882e+06
602864
-1.04285e+06
572263
-989812
543136
-939307
515518
-891348
489272
-845884
464380
-802620
440684
-761511
418217
-722511
396842
-685466
376578
-650300
357329
-616879
339097
-585186
321711
-555005
305212
-526398
289538
-499211
274676
-473396
260516
-448904
247097
-425587
234359
-403547
222243
-382533
210739
-362647
199840
-343691
189436
-325763
179572
-308667
170239
-292502
161331
-277120
152890
-262520
144867
-248659
137224
-235503
129981
-223017
123099
-211161
116556
-199901
110338
-189212
104432
-179073
98817.2
-169443
93479.4
-160298
88409.9
-151625
83586
-143386
79003.4
-135570
74644.5
-128145
70504.6
-121102
66563.3
-114415
62821.7
-108073
59261.3
-102040
55875.7
-96326.1
52652.8
-90892.6
49590.1
-85735.8
46675.4
-80842.5
43901.7
-76194.8
41262.3
-71782.4
38755.1
-67594.7
36368.5
-63612.1
34091.9
-59830.1
31927.7
-56237.5
29869.5
-52828.7
27911
-49580.7
26037.7
-46491.8
24264.6
-43564.9
22568.9
-40768.4
20957.4
-38113.6
19416
-35577.6
17955.1
-33170.8
16553.4
-30863.3
15220.9
-28672.1
13947.9
-26567.7
12734.8
-24559.2
11575.2
-22632.8
10465.9
-20782.4
9405.42
-19002.4
8388.94
-17284.2
7414.37
-15622.3
6478.18
-14007.9
5577.2
-12434.2
4707.84
-10893.6
3867.12
-9378.88
3051.24
-7881.82
2257.28
-6405.2
1485.69
-4941.2
734.938
-3553.02
-2078.99
1.04522e+06
-1.60929e+06
992347
-1.528e+06
942114
-1.451e+06
894353
-1.37771e+06
849064
-1.30798e+06
806028
-1.24172e+06
765137
-1.17867e+06
726304
-1.11883e+06
689417
-1.06194e+06
654389
-1.00782e+06
621110
-956533
589542
-907739
559567
-861374
531024
-817341
503935
-775530
478291
-735866
453865
-698086
430700
-662301
408664
-628264
387764
-595979
367868
-565290
349022
-536159
331114
-508489
314070
-482167
297940
-457267
282560
-433525
268020
-411047
254159
-389686
241019
-369393
228540
-350168
216665
-331815
205384
-314482
194691
-297974
184528
-282339
174839
-267431
165667
-253348
156950
-239942
148669
-227222
140797
-215145
133314
-203679
126210
-192797
119458
-182460
113044
-172658
106942
-163341
101150
-154507
95643.2
-146117
90405.3
-138149
85428.3
-130593
80703.9
-123421
76205.6
-116604
71934.4
-110144
67861.7
-104000
64001.3
-98179.2
60325.2
-92650.1
56831.6
-87399
53512.2
-82416.4
50350.3
-77680.6
47344.9
-73189.5
44484.1
-68921.6
41764.9
-64875.6
39177
-61024.2
36712.9
-57366
34371.2
-53895.8
32141
-50598.6
30015.9
-47455.7
27998.7
-44474.6
26074.2
-41640.5
24245.3
-38939.5
22497.7
-36366
20841.9
-33921.7
19255.8
-31584.8
17749.9
-29357.3
16310.8
-27233.1
14941.7
-25198.6
13634.1
-23251.5
12385.8
-21384.5
11194
-19590.6
10053.8
-17862.3
8963.9
-16194.3
7918.97
-14577.4
6916.95
-13005.9
5953.62
-11470.9
5025.22
-9965.21
4127.95
-8481.61
3258.13
-7012
2411.64
-5558.63
1587.36
-4116.7
777.1
-2742.98
-1302.1
1.12482e+06
-1.54938e+06
1.06794e+06
-1.47112e+06
1.01388e+06
-1.39694e+06
962549
-1.32638e+06
913809
-1.25924e+06
867428
-1.19534e+06
823489
-1.13473e+06
781662
-1.07701e+06
741955
-1.02223e+06
704328
-970194
668469
-920673
634484
-873754
602191
-829080
571522
-786672
542404
-746412
514727
-708189
488466
-671825
463506
-637341
439837
-604595
417284
-573426
395940
-543946
375594
-515813
356324
-489220
338032
-463874
320597
-439832
304105
-417032
288403
-395345
273528
-374811
259323
-355187
245876
-336722
233131
-319070
220980
-302331
209415
-286408
198478
-271403
188112
-257065
178204
-243439
168815
-230554
159895
-218302
151423
-206673
143370
-195625
135720
-185147
128453
-175193
121540
-165746
114979
-156779
108737
-148266
102805
-140185
97174.7
-132518
91817.1
-125236
86725.1
-118329
81887.9
-111767
77286.9
-105543
72916.2
-99629.3
68755.4
-94018.4
64804.3
-88699
61044.3
-83639
57465
-78837.2
54068.2
-74283.8
50836.1
-69957.4
47762.3
-65847.7
44836.4
-61949.8
42055.6
-58243.4
39409
-54719.4
36889.8
-51376.6
34491.5
-48200.3
32216.7
-45180.9
30046.1
-42304
27978.2
-39572.5
26010.9
-36972.3
24142.1
-34497.2
22358.1
-32137.7
20661.1
-29887.8
19045.2
-27741.5
17501.1
-25688.9
16031.1
-23728.6
14629.6
-21850.1
13291.8
-20046.7
12014.5
-18313.4
10794.2
-16642
9626.43
-15026.6
8508.64
-13459.6
7436.1
-11933.4
6405.26
-10440.1
5412.05
-8971.99
4452
-7521.54
3520.43
-6080.4
2611.94
-4650.03
1722.81
-3227.35
832.147
-1852.56
-469.939
1.2015e+06
-1.48543e+06
1.14075e+06
-1.41037e+06
1.08303e+06
-1.33921e+06
1.02815e+06
-1.27151e+06
976062
-1.20715e+06
926580
-1.14586e+06
879570
-1.08772e+06
834961
-1.0324e+06
792539
-979809
752261
-929915
714072
-882484
677689
-837370
643196
-794588
610470
-753946
579347
-715290
549748
-678589
521721
-643798
495039
-610659
469738
-579294
445708
-549395
422831
-521069
401142
-494124
380540
-468617
360949
-444283
342412
-421295
324726
-399346
307973
-378592
291995
-358833
276931
-340124
262526
-322317
248871
-305414
235906
-289367
223625
-274128
211872
-259649
200740
-245933
190220
-232919
180183
-220518
170655
-208773
161594
-197612
152989
-187020
144812
-176970
137042
-167424
129662
-158365
122649
-149766
115983
-141599
109652
-133854
103629
-126496
97906.8
-119513
92466.3
-112888
87299.1
-106600
82383.5
-100627
77709.9
-94955.7
73273.5
-89582.1
69049.8
-84475.4
65033.2
-79622.4
61219.6
-75023.6
57593.1
-70657.3
54136.9
-66501.3
50860.1
-62570.9
47733.8
-58823.5
44763.5
-55273.1
41945.7
-51901.7
39260.7
-48691.6
36701.7
-45641.4
34271
-42750.2
31958.7
-39991.7
29758.1
-37372
27663.2
-34877.4
25668.2
-32502.2
23766.9
-30236.5
21957.9
-28078.8
20235.1
-26018.7
18596.4
-24050.3
17032.8
-22165
15541.8
-20359.1
14120.1
-18624.9
12762.5
-16955.9
11466.3
-15345.8
10227
-13787.3
9040.25
-12272.9
7902.46
-10795.6
6809.56
-9347.2
5756.81
-7919.27
4739.13
-6503.87
3750.84
-5092.1
2786.02
-3685.09
1833.38
-2274.4
858.492
-878.137
388.123
1.27487e+06
-1.41763e+06
1.21047e+06
-1.34597e+06
1.14921e+06
-1.27795e+06
1.09104e+06
-1.21334e+06
1.03574e+06
-1.15185e+06
983232
-1.09335e+06
933342
-1.03783e+06
885942
-984996
841016
-934883
798235
-887134
757627
-841876
719118
-798861
682495
-757965
647676
-719127
614661
-682275
583324
-647252
553539
-614013
525247
-582368
498338
-552385
472840
-523897
448598
-496827
425590
-471116
403648
-446674
382929
-423565
363158
-401524
344436
-380624
326637
-360794
309759
-341955
293653
-324017
278397
-307061
263888
-290905
250118
-275597
237080
-261089
224666
-247236
212866
-234133
201634
-221688
190983
-209866
180862
-198652
171247
-187996
162116
-177890
153433
-168287
145189
-159180
137348
-150524
129900
-142319
122827
-134526
116104
-127131
109713
-120106
103640
-113440
97869.7
-107118
92380.8
-101111
87167.4
-95413.6
82212.4
-90000.7
77501.4
-84871.1
73019.2
-79993.2
68761.8
-75365
64713.2
-70975.1
60861.1
-66805.2
57209.7
-62850
53724.6
-59085.8
50417.7
-55516.6
47269
-52124.5
44274.1
-48906.8
41430.4
-45847.9
38727.9
-42938.9
36145.3
-40167.6
33698.8
-37545.2
31369.3
-35042.5
29150.8
-32658.9
27037.2
-30388.7
25030.8
-28230.1
23121.4
-26169.3
21303.3
-24200.7
19567.3
-22314.3
17916.6
-20514.2
16343.1
-18785.7
14843.6
-17125.4
13413.1
-15525.4
12047.9
-13980.6
10743.5
-12482.8
9496.09
-11025.5
8301.54
-9601.07
7154.67
-8200.33
6051.21
-6815.8
4985.72
-5438.35
3951.71
-4058.04
2941.23
-2674.46
1937.12
-1270.02
948.251
110.332
1336.47
1.34488e+06
-1.34607e+06
1.2769e+06
-1.27799e+06
1.21235e+06
-1.21339e+06
1.15097e+06
-1.15196e+06
1.09264e+06
-1.09352e+06
1.0373e+06
-1.03801e+06
984649
-985186
934689
-935036
887183
-887376
842116
-842067
799267
-799028
758614
-758208
719981
-719331
683306
-682453
648459
-647427
615335
-614128
583867
-582546
554040
-552541
525678
-524023
498735
-496954
473122
-471215
448854
-446848
425806
-423626
403867
-401626
383022
-380679
363263
-360864
344486
-342018
326577
-324046
309679
-307120
293579
-290962
278275
-275600
263756
-261078
249918
-247251
236821
-234139
224365
-221677
212529
-209852
201293
-198630
190610
-187970
180460
-177846
170821
-168250
161659
-159125
152952
-150473
144690
-142262
136830
-134459
129358
-127054
122261
-120033
115518
-113363
109110
-107032
103021
-101029
97234
-95324.2
91726.9
-89906.4
86500
-84773.9
81528.7
-79899.7
76803.1
-75267.7
72314.8
-70876.7
68047.2
-66707.5
63987.4
-62745.4
60125.4
-58988
56457.5
-55417.9
52972.7
-52031.8
49659.2
-48811
46503.7
-45751.4
43503.9
-42848.1
40648.3
-40083.4
37942.2
-37461.6
35359.8
-34962.8
32902.9
-32585.7
30571
-30326.9
28353
-28170.7
26239.1
-26116.2
24227.5
-24157.7
22313.7
-22287
20494.5
-20495.1
18760.7
-18780.4
17109.8
-17134.8
15536.2
-15551.8
14036.6
-14025.9
12606.4
-12550.4
11241.3
-11117.7
9936.95
-9721.14
8688.57
-8352.72
7492.44
-7004.23
6342.64
-5666.03
5233.33
-4329.04
4157.71
-2982.39
3107.71
-1624.3
2063.15
-225.064
1054.97
1117.92
2391.08
1.41135e+06
-1.2711e+06
1.34007e+06
-1.20671e+06
1.27226e+06
-1.14558e+06
1.20791e+06
-1.0876e+06
1.14673e+06
-1.03235e+06
1.08862e+06
-979891
1.0334e+06
-929968
981006
-882638
931151
-837521
883875
-794790
838949
-754102
796206
-715465
755689
-678813
717212
-643976
680622
-610837
645932
-579438
612944
-549557
581590
-521187
551797
-494230
523556
-468713
496713
-444372
471186
-421321
446982
-399422
423975
-378620
402114
-358819
381341
-340090
361639
-322315
342948
-305355
325117
-289289
308181
-274025
292189
-259609
276929
-245818
262424
-232746
248654
-220369
235577
-208600
223157
-197432
211355
-186828
200138
-176752
189493
-167202
179364
-158122
169753
-149513
160615
-141335
151930
-133577
143680
-126209
135846
-119220
128394
-112582
121314
-106283
114588
-100306
108191
-94631.8
102112
-89244.4
96339.1
-84133.8
90852.6
-79287.4
85633.8
-74681
80673.2
-70307.1
75958.8
-66162.3
71478.4
-62227.2
67217.4
-58484.4
63169.9
-54940.5
59318.7
-51566.8
55654.7
-48367.7
52172
-45328.4
48865.9
-42445.3
45717.2
-39699.4
42723.4
-37089.6
39876.3
-34614.5
37171.3
-32257.8
34598.5
-30012.9
32149.3
-27877.7
29819.1
-25840.5
27601.7
-23898.8
25491.1
-22047.2
23484
-20279.9
21572.9
-18584
19752.8
-16960.4
18019.4
-15401.5
16367.9
-13900.2
14793.6
-12451.7
13291.3
-11048.1
11857.2
-9683.66
10486.5
-8350.43
9174.18
-7040.44
7915.16
-5745.21
6703.81
-4454.67
5534.35
-3159.55
4398.13
-1846.12
3284.75
-510.735
2177.95
881.959
1102.48
2193.2
3493.7
1.47404e+06
-1.19273e+06
1.3996e+06
-1.13228e+06
1.32888e+06
-1.07485e+06
1.26162e+06
-1.02034e+06
1.19773e+06
-968457
1.13704e+06
-919204
1.07943e+06
-872355
1.02462e+06
-827829
972647
-785548
923187
-745330
876262
-707177
831725
-670928
789377
-636465
749123
-603722
710939
-572653
674613
-543111
640164
-515109
607447
-488469
576385
-463168
546819
-439146
518790
-416343
492137
-394669
466829
-374114
442779
-354570
419971
-336010
398279
-318398
377609
-301645
358061
-285807
339503
-270731
321841
-256363
305015
-242783
289097
-229900
273975
-217625
259595
-205988
245934
-194940
232953
-184450
220620
-174495
208906
-165039
197772
-156067
187196
-147546
177145
-139463
167601
-131791
158528
-124505
149908
-117589
141713
-111024
133934
-104803
126538
-98886.6
119507
-93275.6
112824
-87948.6
106479
-82899.4
100447
-78102
94709.9
-73550.2
89259.4
-69230.6
84084
-65131.7
79162.5
-61240.9
74476.6
-57541.3
70030.7
-54038.5
65797.2
-50707
61779.4
-47549
57959.8
-44548.2
54325.9
-41694.5
50867.3
-38986.6
47583.6
-36415.7
44464.4
-33970.5
41492.8
-31642.9
38668.5
-29433.6
35983.1
-27327.4
33428.1
-25322.8
31001.1
-23413.5
28691.6
-21589.3
26495.3
-19850.9
24402.5
-18187.1
22412.1
-16593.7
20518.3
-15066.6
18715.1
-13598.2
16997.7
-12182.8
15361
-10815
13801.3
-9488.37
12312.5
-8194.97
10890.6
-6928.55
9530.76
-5680.61
8227.32
-4441.8
6974.4
-3201.77
5765.5
-1950.67
4590.19
-670.786
3440.16
639.455
2303.9
2018.49
1189.75
3306.92
4683.15
1.53289e+06
-1.11136e+06
1.45543e+06
-1.05482e+06
1.38189e+06
-1.00131e+06
1.31198e+06
-950420
1.24557e+06
-902045
1.18248e+06
-856111
1.12254e+06
-812422
1.0656e+06
-770884
1.01147e+06
-731423
960097
-693953
911306
-658387
864919
-624541
820876
-592422
779066
-561912
739313
-532900
701601
-505399
665724
-479232
631658
-454404
599346
-430855
568624
-408424
539418
-387137
511727
-366978
485398
-347785
460407
-329579
436644
-312247
414057
-295811
392688
-280277
372320
-265438
352950
-251361
334579
-237992
317157
-225360
300559
-213302
284811
-201876
269845
-191022
255630
-180725
242128
-170948
229296
-161663
217106
-152848
205526
-144488
194523
-136543
184073
-129013
174136
-121854
164700
-115068
155728
-108618
147210
-102506
139111
-96704.1
131414
-91189.4
124105
-85966.5
117162
-81005.1
110557
-76294.4
104282
-71827.4
98315.4
-67583.7
92647.3
-63562.4
87260.5
-59745
82137.2
-56117.5
77273.7
-52677.8
72648
-49412.8
68250.6
-46309.7
64072.2
-43370.6
60099.9
-40575.9
56322.1
-37916.7
52731.7
-35396.2
49320.4
-33004.4
46076.5
-30726.6
42992.2
-28558.7
40057.9
-26499.2
37268.8
-24538.3
34620.3
-22674.3
32098
-20891.2
29699.7
-19191.1
27418.7
-17569.9
25249.7
-16018.1
23187.3
-14531.2
21224.4
-13103.7
19356.4
-11730.3
17578.8
-10405.2
15885.9
-9122.11
14272.8
-7875.33
12735.2
-6657.29
11267.9
-5461.31
9865.76
-4278.44
8523.69
-3099.73
7235.35
-1913.41
5993.3
-708.577
4785.16
537.41
3611.68
1813.06
2447.35
3182.94
1301.33
4452.85
5984.63
1.5876e+06
-1.02695e+06
1.5075e+06
-974715
1.43131e+06
-925124
1.35896e+06
-878065
1.29018e+06
-833259
1.22481e+06
-790746
1.16273e+06
-750342
1.10378e+06
-711930
1.04773e+06
-675377
994559
-640779
943958
-607785
895957
-576541
850338
-546803
807033
-518607
765873
-491740
726806
-466332
689648
-442073
654397
-419154
620893
-397351
589067
-376599
558861
-356931
530156
-338273
502850
-320479
476977
-303706
452384
-287654
429012
-272439
406794
-258058
385671
-244315
365641
-231331
346656
-219006
328559
-207263
311378
-196122
295059
-185557
279559
-175522
264831
-165997
250836
-156953
237544
-148371
224914
-140219
212913
-132486
201516
-125147
190684
-118180
180392
-111562
170608
-105284
161323
-99332.7
152494
-93677.3
144096
-88306.6
136129
-83222.1
128553
-78390.4
121351
-73803.4
114511
-69454.2
108005
-65321.4
101831
-61409.6
95955.7
-57687.2
90374.4
-54163.7
85069.5
-50812.5
80027.9
-47636.3
75234.3
-44619.3
70681.6
-41756.9
66352.1
-39041.1
62231.8
-36455.7
58321.6
-34006.4
54607.3
-31682
51068.4
-29465.5
47705.4
-27363.6
44514.6
-25367.9
41478.6
-23463.3
38588.5
-21648.2
35839.8
-19925.7
33231.8
-18283.2
30750.8
-16710.1
28390.4
-15209.5
26145.4
-13773.2
24009.4
-12395.2
21978.2
-11072.5
20045.1
-9797.15
18205
-8565.09
16453.1
-7370.28
14784
-6206.3
13193.1
-5066.4
11675.3
-3943.48
10224.6
-2827.78
8835.86
-1711.08
7502.11
-579.686
6214.88
578.652
4965.42
1786.88
3749.5
3029.1
2534.39
4398.23
1337.73
5649.15
7322.1
1.63829e+06
-940010
1.55557e+06
-891991
1.47703e+06
-846585
1.40231e+06
-803347
1.33141e+06
-762352
1.26399e+06
-723325
1.19989e+06
-686249
1.13906e+06
-651095
1.08129e+06
-617611
1.02636e+06
-585849
974230
-555654
924671
-526981
877595
-499727
832856
-473868
790409
-449293
750091
-426014
711778
-403760
675410
-382785
640825
-362765
608006
-343780
576801
-325725
547149
-308622
519027
-292357
492289
-276967
466868
-262233
442805
-248376
419847
-235101
398086
-222554
377425
-210670
357752
-199333
339092
-188603
321360
-178390
304522
-168719
288518
-159518
273315
-150795
258873
-142511
245150
-134648
232117
-127186
219729
-120098
207962
-113379
196777
-106995
186155
-100940
176063
-95192
166467
-89737.4
157349
-84558.9
148692
-79650.1
140461
-74991.1
132637
-70566.1
125204
-66371
118142
-62391.9
111436
-58615.3
105052
-55025.8
98994.8
-51629.8
93230.1
-48399
87754.6
-45337
82552.7
-42434.4
77606.9
-39673.4
72904
-37054
68433.3
-34570.4
64189.6
-32212.1
60155.8
-29972.5
56315.1
-27841.3
52670.4
-25820.9
49200.3
-23893.4
45904.9
-22072.5
42769.4
-20327.7
39793.3
-18672.1
36960.5
-17092.9
34265.3
-15588
31705.5
-14150.3
29270.8
-12774.7
26955.3
-11457.7
24754.1
-10194
22659.2
-8977.6
20666.5
-7804.44
18770
-6668.6
16964.5
-5564.81
15244.7
-4486.57
13606
-3427.66
12041.8
-2379.24
10548.2
-1334.16
9117.33
-280.237
7742.84
794.822
6418.94
1902.59
5134.02
3071.85
3880.33
4282.89
2619.79
5658.86
1376.92
6891.97
8699.17
1.68455e+06
-850497
1.59958e+06
-807027
1.51874e+06
-765736
1.44199e+06
-726597
1.36903e+06
-689390
1.29974e+06
-654033
1.2339e+06
-620410
1.17134e+06
-588535
1.1119e+06
-558179
1.05541e+06
-529354
1.00181e+06
-502054
950833
-476005
902450
-451344
856513
-427931
812847
-405626
771339
-384507
731983
-364404
694506
-345309
658959
-327219
625165
-309986
593130
-293691
562678
-278170
533706
-263385
506155
-249416
480066
-236144
455236
-223547
431691
-211556
409317
-200180
388033
-189386
367830
-179131
348623
-169395
330391
-160158
313061
-151390
296608
-143064
280964
-135150
266111
-127658
251993
-120530
238580
-113774
225840
-107358
213733
-101272
202229
-95491.2
191302
-90012.8
180915
-84805.3
171048
-79870.3
161676
-75187.4
152768
-70741.6
144300
-66523.9
136256
-62521.2
128610
-58725.7
121348
-55129.3
114442
-51709.9
107885
-48468.4
101646
-45391.2
95721
-42473.6
90094.3
-39710.3
84738.8
-37079
79654.3
-34589
74819.6
-32219.2
70229.4
-29980.2
65862.8
-27845.4
61708.7
-25818.4
57763.4
-23896
54013.1
-22070.6
50456.6
-20337
47065.4
-18681.4
43845
-17107.3
40786.4
-15613.5
37878.7
-14185.2
35113.6
-12822.9
32485.4
-11522.1
29988.1
-10277.3
27613
-9082.6
25354.8
-7935.84
23207.6
-6830.44
21165.4
-5762.3
19223.2
-4726.39
17375.5
-3717.08
15616.3
-2727.46
13940.8
-1752.16
12344.4
-782.88
10819.6
190.574
9362.22
1177.13
7965.43
2191.59
6624.05
3243.96
5323.82
4372.09
4058.25
5548.55
2781.53
6935.73
1522.24
8150.94
10221.2
1.72651e+06
-758847
1.63934e+06
-719853
1.5566e+06
-683002
1.47794e+06
-647935
1.40314e+06
-614589
1.33215e+06
-583041
1.26468e+06
-552936
1.20053e+06
-524385
1.13962e+06
-497273
1.08181e+06
-471548
1.02681e+06
-447046
974611
-423810
925054
-401787
877922
-380799
833155
-360859
790621
-341972
750238
-324021
711917
-306987
675460
-290762
640860
-275385
607989
-260820
576702
-246882
547100
-233783
518896
-221212
492148
-209396
466688
-198086
442525
-187393
419569
-177224
397755
-167572
377041
-158417
357367
-149721
338673
-141464
320906
-133623
304026
-126184
287998
-119122
272765
-112425
258295
-106060
244548
-100027
231483
-94293.1
219068
-88856.8
207278
-83701.6
196071
-78805.6
185423
-74157.6
175306
-69753.1
165693
-65573.9
156555
-61604
147875
-57843.1
139630
-54276.5
131794
-50890.2
124344
-47679.3
117264
-44629.4
110539
-41744.2
104145
-38996.9
98075.4
-36404
92297.2
-33932.1
86814.8
-31596.6
81596.1
-29370.2
76643
-27266.1
71933.1
-25270.3
67453.1
-23365.4
63201.3
-21566.7
59162.5
-19857.2
55318.5
-18226.6
51662.7
-16681.2
48195.2
-15213.9
44897.2
-13809.3
41759.7
-12476
38779.8
-11205.3
35947.1
-9990.19
33254.6
-8829.64
30694.3
-7717
28261.1
-6649.4
25947.8
-5622.58
23748.9
-4631.47
21657.8
-3671.17
19669.2
-2737.84
17777.4
-1825.29
15977.2
-927.266
14262.3
-37.222
12627.7
851.714
11068.3
1750.02
9578.5
2666.91
8151.65
3618.47
6780.29
4615.36
5450.97
5701.44
4159.09
6840.52
2849.58
8245.34
1558.44
9442.04
11779.8
1.76385e+06
-665228
1.67488e+06
-630881
1.59029e+06
-598407
1.50994e+06
-567589
1.43364e+06
-538288
1.36106e+06
-510453
1.29213e+06
-484014
1.22666e+06
-458910
1.16446e+06
-435079
1.10533e+06
-412416
1.0492e+06
-390918
995904
-370510
945183
-351066
897069
-332685
851350
-315140
807922
-298545
766703
-282802
727460
-267745
690256
-253558
654893
-240023
621269
-227196
589410
-215024
559054
-203426
530316
-192474
502908
-181988
476931
-172109
452236
-162698
428780
-153768
406503
-145295
385335
-137250
365222
-129608
346109
-122351
327963
-115477
310721
-108942
294339
-102740
278766
-96852.5
263975
-91268.6
249919
-85971.1
236570
-80943.8
223889
-76176.1
211832
-71644.3
200378
-67351.9
189496
-63275.4
179156
-59413.4
169328
-55745.8
159998
-52273.4
151123
-48968.4
142691
-45844.4
134679
-42878.8
127068
-40067.8
119832
-37393.7
112953
-34864.7
106427
-32471.1
100213
-30189.8
94313.4
-28032.7
88703.6
-25986.8
83376
-24042.6
78310.1
-22200.3
73493.9
-20454.1
68924.3
-18795.8
64574.3
-17216.8
60441.2
-15724.1
56512.8
-14298.1
52782.5
-12950.9