/*--------------------------------*- C++ -*----------------------------------*\
  =========                 |
  \\      /  F ield         | OpenFOAM: The Open Source CFD Toolbox
   \\    /   O peration     | Website:  https://openfoam.org
    \\  /    A nd           | Version:  11
     \\/     M anipulation  |
\*---------------------------------------------------------------------------*/
FoamFile
{
    format      ascii;
    class       surfaceScalarField;
    location    "100";
    object      phi;
}
// * * * * * * * * * * * * * * * * * * * * * * * * * * * * * * * * * * * * * //

dimensions      [0 3 -1 0 0 0 0];

internalField   nonuniform List<scalar> 
62845
(
48199.8
-552921
554639
45334.9
-525609
528475
43348.7
-499191
501178
41068.1
-474223
476504
39092.6
-450425
452401
37103.9
-427849
429838
35284.2
-406375
408195
33525.8
-385979
387737
31863.5
-366589
368251
30274.4
-348179
349768
28780
-330696
332191
27367.6
-314088
315501
26000.4
-298292
299659
24732.7
-283325
284593
23493.6
-269069
270308
22355
-255567
256705
21244.2
-242702
243812
20190.1
-230517
231571
19207.6
-218940
219922
18267.3
-207925
208866
17354.6
-197473
198386
16513.3
-187569
188410
15699.4
-178124
178937
14927.7
-169181
169953
14198.1
-160683
161413
13495.9
-152600
153302
12835.7
-144946
145606
12202.9
-137661
138294
11612.1
-130761
131352
11019.3
-124173
124765
10483.1
-117953
118489
9959.56
-112030
112553
9463.29
-106416
106913
8994.27
-101069
101538
8537.92
-96002.9
96459.3
8108.82
-91187.6
91616.7
7692.4
-86623
87039.4
7303.27
-82279.8
82669
6926.87
-78156.3
78532.7
6566.14
-74243.4
74604.1
6221.16
-70527.7
70872.7
5892
-66998.8
67328
5575.85
-63646.3
63962.4
5274.21
-60464
60765.7
4984.27
-57440.1
57730.1
4707.64
-54568.6
54845.3
4440.07
-51840.5
52108.1
4186.08
-49251.2
49505.2
3941.43
-46789
47033.6
3707.72
-44452.1
44685.9
3483.63
-42230.4
42454.5
3269.32
-40120.8
40335.1
3062.02
-38114.3
38321.6
2866.27
-36211
36406.8
2677.81
-34400.5
34589
2496.81
-32678.5
32859.5
2324.83
-31044.9
31216.9
2159.1
-29490.8
29656.6
2002.64
-28013.5
28170
1852.67
-26609.9
26759.9
1709.26
-25275.6
25419.1
1572.56
-24006.4
24143.1
1442.62
-22800.8
22930.7
1319.55
-21654.3
21777.4
1201.96
-20564.2
20681.8
1091.39
-19527.6
19638.2
984.998
-18541.5
18647.9
884.308
-17604.6
17705.2
790.811
-16715.3
16808.8
701.694
-15866.7
15955.8
617.006
-15061.5
15146.2
538.262
-14295.5
14374.2
465.497
-13568.7
13641.5
395.912
-12875.6
12945.2
332.455
-12217.6
12281
272.636
-11592.8
11652.7
217.978
-10998.9
11053.6
168.006
-10435.1
10485
122.862
-9900.18
9945.32
82.2208
-9392.74
9433.38
47.2052
-8912.92
8947.93
15.554
-8459.96
8491.6
-6.90369
-8030.33
8052.77
-30.0163
-7640.33
7663.44
-34.7949
-7243.96
7248.74
-50.1266
-6964.05
6979.39
-30.8015
-6533.45
6514.13
-51.4889
-6600.54
6621.23
-5846.85
5795.36
75170.4
-549182
71341.5
-521780
67799.9
-495650
64393.4
-470816
61171.9
-447203
58093.4
-424771
55186.1
-403468
52418.2
-383211
49785.6
-363956
47296.9
-345690
44926.2
-328326
42671.3
-311833
40547.8
-296169
38511
-281288
36590.4
-267148
34756.5
-253733
33024
-240969
31363.3
-228857
29789.2
-217366
28301.6
-206438
26900.4
-196072
25541.8
-186210
24269.4
-176851
23039.5
-167952
21881.2
-159525
20794.5
-151513
19750.1
-143901
18747.9
-136659
17788
-129801
16899.6
-123284
16053.3
-117107
15234.5
-111211
14443.3
-105625
13708.7
-100335
13001.7
-95295.9
12336.8
-90522.6
11699.3
-85985.6
11089.4
-81669.9
10502.7
-77569.6
9949.41
-73690.1
9419.36
-69997.6
8914.08
-66493.5
8432.22
-63164.4
7970.89
-60002.7
7530.22
-56999.4
7110.29
-54148.7
6709.78
-51440
6325.88
-48867.3
5960.18
-46423.3
5609.89
-44101.9
5276.59
-41897.1
4957.51
-39801.7
4654.23
-37811
4362.53
-35919.3
4083.98
-34122
3820.16
-32414.7
3566.83
-30791.5
3325.55
-29249.6
3094.99
-27782.9
2875.25
-26390.1
2666.41
-25066.8
2467.13
-23807.2
2278.93
-22612.6
2097.55
-21473
1925.97
-20392.7
1764.24
-19365.9
1610.99
-18388.2
1464.83
-17458.4
1325.81
-16576.3
1194
-15734.9
1070.89
-14938.4
955.083
-14179.7
843.782
-13457.4
739.916
-12771.7
643.528
-12121.2
552.861
-11502.2
468.136
-10914.2
389.482
-10356.4
316.763
-9827.46
249.919
-9325.9
189.462
-8852.47
134.416
-8404.92
87.8752
-7983.8
43.7959
-7596.26
16.2073
-7216.37
-17.7849
-6930.06
-18.1744
-6533.05
-58.4305
-6560.29
-5905.29
102157
-543822
97011.1
-516634
92142.6
-490781
87495.7
-466169
83106.9
-442815
78923.6
-420587
74945.7
-399490
71173
-379438
67591.1
-360374
64185.2
-342284
60955.2
-325096
57886.2
-308764
54978
-293261
52201.3
-278512
49570.5
-264517
47070.7
-251233
44702.1
-238600
42464.3
-226619
40313.4
-215215
38278.7
-204403
36330.7
-194124
34498.7
-184378
32753.3
-175106
31109.2
-166307
29522.3
-157938
28021.9
-150013
26593.4
-142473
25251.2
-135317
23966.1
-128516
22738.1
-122056
21552.6
-115921
20453.2
-110111
19410.8
-104583
18396.2
-99320.2
17453.1
-94352.8
16537.7
-89607.3
15664.7
-85112.6
14836.9
-80842.1
14058.8
-76791.4
13308.4
-72939.7
12596.2
-69285.4
11916.2
-65813.5
11267
-62515.2
10650.3
-59385.9
10061.6
-56410.8
9499.74
-53586.8
8964.66
-50904.9
8453.62
-48356.2
7966.71
-45936.3
7501.12
-43636.3
7056.98
-41453
6634.41
-39379.1
6230.61
-37407.2
5847.14
-35535.8
5479.78
-33754.6
5130.07
-32065
4798.13
-30459.6
4479.71
-28931.1
4177.8
-27481
3891.04
-26103.4
3615.19
-24791
3354.66
-23546.6
3105.2
-22363.1
2871.21
-21239
2646.98
-20168.4
2432.56
-19151.4
2229.48
-18185.2
2037.79
-17266.7
1854.64
-16393.2
1682.98
-15563.2
1519.96
-14775.4
1364.23
-14024
1218.68
-13311.9
1081.94
-12635
951.376
-11990.6
829.048
-11379.9
714.736
-10799.9
607.586
-10249.3
507.705
-9727.58
415.111
-9233.31
329.638
-8767
250.971
-8326.25
181.078
-7913.91
115.953
-7531.13
66.1523
-7166.57
12.8224
-6876.72
-6.24233
-6513.98
-63.2473
-6503.29
-5968.54
128931
-536995
122429
-510132
116251
-484602
110399
-460318
104810
-437225
99530.4
-415307
94515.4
-394475
89735.8
-374658
85220.9
-355859
80911.8
-337975
76823.2
-321007
72954.7
-304896
69247.5
-289553
65760.2
-275024
62433.9
-261191
59283.1
-248082
56278.4
-235596
53419.6
-223760
50721.3
-212517
48154.1
-201836
45703.2
-191673
43383.3
-182058
41179.6
-172902
39077.4
-164205
37091.2
-155952
35191.9
-148114
33393.8
-140675
31682.4
-133605
30057.6
-126892
28504.7
-120503
27038.3
-114455
25643.7
-108717
24306.4
-103245
23040.9
-98054.7
21832.5
-93144.4
20695.9
-88470.6
19601.8
-84018.5
18564.9
-79805.2
17576.3
-75802.9
16637.7
-72001.1
15741.7
-68389.4
14888.4
-64960.2
14077.7
-61704.6
13302.6
-58610.8
12565.9
-55674.1
11864.9
-52885.7
11195.2
-50235.2
10558.4
-47719.4
9950.18
-45328.1
9372.16
-43058.2
8821.47
-40902.3
8295.35
-38853
7795.32
-36907.2
7317.15
-35057.7
6863.84
-33301.3
6429.67
-31630.8
6016.2
-30046.1
5624.96
-28539.9
5250.24
-27106.3
4893.59
-25746.7
4556.51
-24453.9
4233.31
-23223.4
3926.94
-22056.8
3633.15
-20945.2
3356.3
-19891.6
3093.59
-18888.7
2843.63
-17935.2
2605.02
-17028.1
2380.68
-16168.9
2166.35
-15348.9
1963.53
-14572.5
1772.22
-13832.7
1589.67
-13129.4
1417.33
-12462.6
1256.06
-11829.3
1103.42
-11227.2
959.468
-10655.9
824.316
-10114.1
697.624
-9600.89
579.174
-9114.86
469.186
-8657.02
367.002
-8224.07
274.185
-7821.1
187.785
-7444.74
115.93
-7094.72
43.6398
-6804.43
5.45667
-6475.8
-67.7368
-6430.11
-6036.29
155339
-528733
147515
-502307
140060
-477147
132992
-453249
126291
-430525
119900
-408916
113834
-388408
108091
-368916
102629
-350397
97446.7
-332793
92529.1
-316089
87832
-300199
83399.5
-285121
79172.4
-270797
75165.5
-257184
71349
-244266
67737.7
-231984
64301.9
-220324
61027
-209242
57927.4
-198736
54988.4
-188734
52180.7
-179250
49518.7
-170240
47002.4
-161689
44602.4
-153552
42318.7
-145830
40151.2
-138507
38085.2
-131539
36120.7
-124927
34257.5
-118640
32495.7
-112693
30791.4
-107013
29203
-101657
27686.5
-96538.2
26227.5
-91685.4
24840.4
-87083.6
23539.9
-82717.9
22292.3
-78557.7
21106.5
-74617.1
19976.6
-70871.2
18901.2
-67314
17878.9
-63937.8
16905.2
-60731
15978.9
-57684.5
15095.6
-54790.8
14255.4
-52045.5
13455.4
-49435.1
12692.7
-46956.8
11967.5
-44603
11277
-42367.7
10618.3
-40243.6
9991.42
-38226.2
9393.69
-36309.5
8826.57
-34490.5
8284.37
-32759.1
7770.06
-31116.5
7279.38
-29555.4
6810.97
-28071.5
6367.79
-26663.1
5944.13
-25323.1
5541.51
-24051.3
5158.56
-22840.5
4793.89
-21692.1
4447.55
-20598.9
4118.17
-19562.2
3804.36
-18574.9
3507.57
-17638.4
3226.45
-16747
2956.73
-15899.1
2702.74
-15094.9
2461.64
-14331.4
2232.11
-13603.1
2016.95
-12914.2
1811.97
-12257.7
1618.1
-11635.5
1434.95
-11044.1
1262.44
-10483.4
1099.7
-9951.38
946.942
-9448.13
803.666
-8971.59
669.636
-8522.99
544.875
-8099.31
430.039
-7706.26
323.294
-7337.99
231.085
-7002.51
140.521
-6713.86
84.3033
-6419.57
-3.05392
-6342.75
-6039.34
181352
-519093
172194
-493150
163510
-468462
155241
-444981
147400
-422684
139958
-401474
132885
-381335
126166
-362197
119772
-344003
113716
-326737
107955
-310328
102503
-294747
97301.4
-279919
92378.9
-265875
87691.5
-252497
83238.9
-239813
79006.5
-227752
74993.9
-216312
71186.4
-205434
67554.6
-195104
64112.9
-185293
60846.7
-175984
57741.1
-167135
54781.6
-158729
51967.8
-150738
49314.5
-143177
46763
-135956
44357.1
-129134
42067.5
-122637
39908.8
-116481
37822.4
-110607
35881.4
-105072
33998.1
-99773.6
32216.1
-94756.3
30535.6
-90004.8
28927.3
-85475.2
27391.1
-81181.8
25943.1
-77109.7
24558.6
-73232.5
23243.2
-69555.9
21992.8
-66063.5
20801.4
-62746.5
19667.6
-59597.2
18590.1
-56606.9
17564.4
-53765.2
16586.4
-51067.4
15657.4
-48506.2
14773.2
-46072.6
13931
-43760.7
13127.8
-41564.5
12365.3
-39481.1
11639.2
-37500
10946.5
-35616.8
10287.5
-33831.5
9662.14
-32133.7
9064.72
-30519.1
8496.77
-28987.5
7956.91
-27531.6
7442.31
-26148.5
6953.04
-24833.8
6486.29
-23584.5
6044.97
-22399.2
5623.39
-21270.5
5224.46
-20199.9
4842.51
-19180.3
4481.85
-18214.3
4136.82
-17293.4
3810.3
-16420.4
3500.88
-15589.7
3207.19
-14801.2
2926.42
-14050.7
2662.82
-13339.5
2412.19
-12663.6
2174.58
-12020.1
1948.92
-11409.8
1736.06
-10831.2
1534.92
-10282.3
1345.2
-9761.66
1166.41
-9269.34
998.298
-8803.48
840.605
-8365.3
693.139
-7951.85
556.43
-7569.56
428.944
-7210.51
316.028
-6889.6
207.071
-6604.9
130.673
-6343.18
29.3324
-6241.42
-6010.03
206865
-508110
196407
-482692
186481
-458534
177072
-435572
168108
-413719
159615
-392981
151536
-373256
143871
-354532
136603
-336735
129675
-319809
123115
-303769
116865
-288496
110938
-273993
105306
-260243
99967.6
-247158
94879.1
-234725
90055
-222928
85465.8
-211723
81111.2
-201080
76976.6
-190970
73061.7
-181378
69322.5
-172245
65773.5
-163586
62400
-155356
59201.9
-147540
56149.7
-140124
53258.2
-133064
50512.5
-126388
47897.9
-120023
45414.5
-113998
43062
-108254
40811.3
-102821
38676.9
-97639.2
36658.7
-92738.1
34727.6
-88073.7
32898
-83645.6
31156.8
-79440.6
29495.3
-75448.2
27920.7
-71657.9
26422.8
-68058
24997.3
-64638
23641.2
-61390.4
22351.7
-58307.7
21124.3
-55379.6
19956.3
-52597.2
18846.2
-49957.3
17788.3
-47448.2
16782.5
-45066.8
15824.6
-42802.8
14914.6
-40654.6
14046.8
-38613.3
13222.7
-36675.9
12438
-34832.2
11691.4
-33084.8
10979.9
-31422.3
10303.6
-29842.8
9659.82
-28343.7
9047.04
-26918.8
8463.89
-25565.4
7910.43
-24280.3
7383.83
-23057.9
6881.27
-21896.6
6404.21
-20793.5
5951.26
-19747
5521.02
-18750
5109.26
-17802.5
4721.67
-16905.8
4351.2
-16050
4000.67
-15239.2
3665.9
-14466.4
3351.09
-13735.9
3049.27
-13037.7
2764.63
-12378.9
2494.29
-11749.7
2238.9
-11154.4
1996.87
-10589.2
1767.69
-10053.1
1551.39
-9545.36
1346.95
-9064.9
1154.34
-8610.88
973.132
-8184.1
803.178
-7781.9
644.468
-7410.85
496.353
-7062.39
362.373
-6755.61
234.421
-6476.94
136.883
-6245.62
21.438
-6125.97
-5988.58
231836
-495800
220125
-470981
209003
-447412
198427
-424997
188398
-403690
178871
-383454
169817
-364202
161220
-345935
153051
-328566
145294
-312053
137921
-296396
130931
-281506
124295
-267356
117968
-253915
111964
-241155
106284
-229045
100868
-217512
95732.1
-206586
90845.3
-196193
86207.9
-186332
81790.6
-176960
77607.9
-168062
73630.2
-159608
69842.9
-151568
66260.4
-143958
62838.9
-136703
59607.3
-129832
56521.9
-123302
53597
-117098
50818.1
-111219
48170.4
-105606
45653.9
-100304
43268.5
-95253.8
40999.5
-90469.2
38832.4
-85906.5
36781.6
-81594.8
34831.1
-77490.1
32976.4
-73593.6
31211.8
-69893.3
29532.9
-66379
27938.1
-63043.2
26420.2
-59872.5
24977.7
-56865.3
23603.5
-54005.4
22298.9
-51292.6
21056.7
-48715.1
19874.1
-46265.6
18749.6
-43942.3
17681.8
-41735
16663.5
-39636.3
15696.2
-37646
14772.7
-35752.4
13897.4
-33956.8
13063
-32250.5
12269.8
-30629
11516.1
-29089.2
10797.9
-27625.4
10115.1
-26236
9464.8
-24915.1
8847.16
-23662.7
8259.28
-22470.1
7699.8
-21337.1
7168.72
-20262.4
6663.22
-19241.5
6181.91
-18268.7
5726.2
-17346.8
5291.87
-16471.5
4880.33
-15638.4
4487.38
-14846.3
4117.22
-14096.3
3762.86
-13381.5
3428.51
-12703.4
3109.96
-12060.4
2809.03
-11448.8
2523.24
-10868.6
2252.48
-10318.4
1996.15
-9796.79
1753.43
-9302.65
1524.23
-8835.7
1307.71
-8394.37
1103.66
-7980.05
911.73
-7589.98
731.667
-7230.8
562.979
-6893.71
408.4
-6601.04
261.766
-6330.31
142.391
-6126.26
13.2403
-5996.84
-5975.36
256164
-482180
243231
-458047
230943
-435124
219276
-413329
208199
-392613
197653
-372908
187667
-354216
178154
-336422
169128
-319540
160573
-303498
152417
-288239
144688
-273777
137342
-260010
130364
-246937
123740
-234530
117439
-222744
111461
-211535
105778
-200903
100388
-190803
95248.4
-181193
90387.3
-172099
85746.4
-163421
81354.8
-155216
77183.1
-147397
73201.8
-139977
69440.1
-132941
65854
-126246
62458.2
-119907
59208.5
-113848
56134.1
-108145
53220.5
-102693
50438.2
-97522
47787.2
-92602.8
45282
-87964
42908.1
-83532.6
40633.2
-79319.9
38477.7
-75334.6
36428.5
-71544.3
34481.2
-67946
32628.4
-64526.3
30867.2
-61282
29193.4
-58198.6
27599.5
-55271.4
26085.5
-52491.4
24644.3
-49851.4
23273
-47343.8
21971.5
-44964.1
20731.1
-42701.9
19551.9
-40555.8
18431.1
-38515.4
17364.2
-36579.1
16350
-34738.1
15384
-32990.9
14466.3
-31332.9
13592.7
-29755.4
12760.3
-28256.8
11970.4
-26835.6
11219
-25484.6
10504.5
-24200.6
9824.14
-22982.3
9177.9
-21823.8
8562.95
-20722.2
7977.89
-19677.3
7421.32
-18684.9
6894.64
-17742
6392.22
-16844.4
5914.05
-15993.3
5460.13
-15184.5
5030.46
-14416.6
4620.83
-13686.7
4232.63
-12993.3
3864.45
-12335.2
3513.53
-11709.5
3181.37
-11116.6
2866.59
-10553.9
2567.93
-10019.8
2285.16
-9514.02
2017.45
-9034.93
1764.03
-8582.28
1524.66
-8155
1298.64
-7754.02
1085.63
-7376.97
885.461
-7030.62
697.72
-6705.96
524.374
-6427.68
360.412
-6166.33
222.724
-5988.55
78.8314
-5852.94
-5896.52
279851
-467308
265726
-443921
252304
-421702
239545
-400571
227435
-380503
215930
-361403
204999
-343286
194630
-326052
184761
-309671
175395
-294131
166514
-279359
158046
-265310
150020
-251984
142407
-239324
135161
-227285
128269
-215852
121745
-205010
115529
-194687
109637
-184911
104039
-175594
98705.1
-166766
93650.2
-158366
88844.8
-150411
84274.1
-142826
79952.6
-135655
75821.7
-128810
71910.4
-122335
68175
-116171
64659
-110332
61289.4
-104775
58095.2
-99498.6
55061.8
-94488.6
52189.1
-89730.1
49433.2
-85208.2
46823.3
-80922.7
44359.3
-76856
42004.8
-72980.1
39768.3
-69307.9
37639.7
-65817.4
35617.5
-62504.1
33694.4
-59358.9
31866
-56370.2
30127.9
-53533.3
28475.7
-50839.3
26903.7
-48279.4
25410.4
-45850.4
23988.5
-43542.2
22636.7
-41350.1
21350.4
-39269.6
20128.5
-37293.4
18964.9
-35415.6
17858.5
-33631.7
16807.6
-31940
15806.6
-30331.8
14854
-28802.8
13949.9
-27352.7
13089.9
-25975.7
12269.9
-24664.5
11492.5
-23423.3
10750.9
-22240.7
10046.3
-21119.2
9378.69
-20054.6
8742.49
-19041.1
8136.26
-18078.7
7561.42
-17167.2
7015.11
-16298.1
6495.93
-15474.1
6002.46
-14691.1
5533.29
-13947.4
5087.01
-13240.4
4663.59
-12569.9
4261.63
-11933.2
3881.11
-11328.9
3519.25
-10754.8
3175.88
-10210.5
2850.46
-9694.34
2541.73
-9205.3
2249.43
-8742.63
1972.59
-8305.44
1710.65
-7893.07
1462.86
-7506.24
1229.26
-7143.38
1009.1
-6810.47
802.118
-6498.99
609.611
-6235.19
428.076
-5984.8
272.199
-5832.68
111.359
-5692.12
-5785.18
302781
-451230
287507
-428647
272981
-407176
259191
-386780
246078
-367390
233629
-348953
221798
-331456
210558
-314811
199907
-299021
189757
-283982
180124
-269725
170991
-256177
162300
-243294
154037
-231060
146200
-219448
138761
-208413
131690
-197939
124972
-187969
118577
-178517
112521
-169538
106758
-161003
101290
-152898
96070.6
-145192
91145
-137900
86439.5
-130950
81983.4
-124354
77747.1
-118099
73730.6
-112155
69890
-106492
66254.4
-101139
62794.4
-96038.6
59510
-91204.2
56401
-86621.1
53438.3
-82245.4
50620.2
-78104.7
47935.2
-74170.9
45388.9
-70433.7
42968.1
-66887.1
40667
-63516.3
38481.3
-60318.3
36400.6
-57278.2
34424.9
-54394.5
32544.1
-51652.5
30756.6
-49051.9
29058.2
-46580.9
27442.9
-44235.2
25906.5
-42005.7
24446
-39889.6
23057.1
-37880.7
21735.4
-35971.8
20479.6
-34159.7
19285.2
-32437.3
18149.4
-30804.2
17067.9
-29250.4
16040.8
-27775.6
15063.6
-26375.5
14133.5
-25045.6
13252
-23783
12410.5
-22581.8
11611.8
-21442
10851.7
-20359.1
10128.7
-19331.6
9442.88
-18355.3
8791.27
-17427.1
8168.32
-16544.3
7579.61
-15709.4
7019.48
-14914
6486.54
-14158.1
5979.35
-13440.2
5499.28
-12760.3
5043.51
-12114.1
4610.61
-11500.3
4197.97
-10916.3
3807.32
-10364.1
3436.44
-9839.62
3084.73
-9342.64
2751.09
-8871.66
2434.81
-8426.34
2135.07
-8005.7
1851.18
-7609.18
1582.58
-7237.63
1328.55
-6889.35
1088.59
-6570.5
862.569
-6272.95
650.976
-6023.58
451.142
-5784.94
275.033
-5656.54
97.953
-5515.02
-5687.21
324924
-433959
308518
-412241
292947
-391604
278140
-371973
264070
-353319
250721
-335604
238020
-318755
225968
-302759
214506
-287558
203633
-273109
193290
-259383
183478
-246365
174153
-233968
165298
-222206
156885
-211035
148885
-200412
141282
-190336
134076
-180763
127223
-171664
120709
-163023
114518
-154812
108650
-147030
103076
-139618
97766.4
-132591
92721
-125904
87939.7
-119573
83393.1
-113552
79051.9
-107813
74959.8
-102400
71058.2
-97237.7
67347.1
-92327.5
63826.3
-87683.4
60466.6
-83261.4
57288.4
-79067.2
54263.7
-75080
51388.2
-71295.4
48657.5
-67703
46059.7
-64289.4
43590.6
-61047.2
41244.2
-57971.9
39013.3
-55047.3
36891.8
-52273.1
34878.5
-49639.1
32961.6
-47134.9
31138.2
-44757.5
29405.3
-42502.4
27758.7
-40359.1
26192.5
-38323.4
24703.8
-36392
23288.3
-34556.2
21940.1
-32811.6
20660.7
-31157.9
19443
-29586.4
18285.4
-28092.8
17185
-26675.3
16139.1
-25329.6
15143.2
-24049.8
14196
-22835.8
13296.1
-21681.8
12441.9
-20587.8
11629.1
-19546.4
10855.1
-18557.6
10119.6
-17619.8
9419.98
-16727.5
8757.42
-15881.7
8124.97
-15076.9
7524.04
-14313.1
6954.51
-13588.6
6413.59
-12899.3
5898.46
-12245.2
5409.08
-11624.8
4944.58
-11035.8
4504.35
-10476.1
4085.75
-9945.51
3688.57
-9442.45
3311.46
-8965.52
2953.75
-8513.96
2614.49
-8087.09
2292.8
-7684.02
1987.87
-7304.25
1698.98
-6948.75
1425.63
-6616.01
1166.88
-6311.77
922.436
-6028.52
692.113
-5793.27
474.834
-5567.68
277.517
-5459.24
84.2911
-5321.83
-5602.95
346224
-415585
328758
-394775
312142
-374988
296379
-356210
281395
-338336
267162
-321371
253636
-305229
240802
-289925
228587
-275343
217006
-261528
205999
-248376
195523
-235889
185591
-224036
176161
-212775
167187
-202062
158684
-191909
150593
-182246
142900
-173070
135589
-164353
128661
-156095
122071
-148222
115804
-140763
109861
-133674
104211
-126941
98840.4
-120534
93734.1
-114466
88891.9
-108710
84299.2
-103221
79911.8
-98012.3
75744.4
-93070.3
71811.4
-88394.6
68054.4
-83926.4
64481.9
-79689
61089.5
-75674.8
57867
-71857.5
54805.5
-68233.9
51894.7
-64792.2
49127.3
-61522
46500.3
-58420.2
43999.1
-55470.7
41625.2
-52673.3
39366.7
-50014.6
37219.4
-47491.8
35178.8
-45094.3
33240.5
-42819.3
31395.9
-40657.7
29642
-38605.2
27975.8
-36657.2
26390.2
-34806.4
24882.2
-33048.2
23450.3
-31379.7
22088.8
-29796.4
20793.4
-28291
19561
-26860.4
18390.4
-25504.6
17277.1
-24216.3
16218.4
-22991
15212.6
-21830.1
14255.6
-20724.8
13344.4
-19676.6
12479.2
-18681.1
11658.3
-17736.7
10876.1
-16837.6
10132.5
-15983.9
9426.25
-15175.4
8755.74
-14406.4
8118.12
-13675.5
7512.06
-12982.5
6936.06
-12323.3
6388.7
-11697.8
5868.53
-11104.6
5375.1
-10542.4
4906.27
-10007.3
4461.06
-9500.29
4038.42
-9019.81
3637.2
-8564.3
3256.7
-8133.45
2895.5
-7725.89
2552.96
-7341.48
2228.29
-6979.57
1920.4
-6640.86
1628.81
-6324.41
1352.6
-6035.56
1091.76
-5767.66
845.493
-5546.99
613.262
-5335.42
400.893
-5246.84
194.253
-5115.16
-5408.66
366607
-396108
348112
-376279
330539
-357415
313834
-339504
297966
-322468
282893
-306298
268586
-290922
254971
-276310
242063
-262435
229773
-249238
218117
-236720
207051
-224822
196529
-213515
186523
-202769
177032
-192571
167997
-182875
159434
-173682
151297
-164934
143573
-156629
136216
-148738
129242
-141247
122606
-134127
116308
-127376
110318
-120952
104637
-114853
99235.1
-109065
94082.9
-103558
89209.5
-98347.2
84585.5
-93388.3
80181.6
-88666.4
75983
-84196
72011.7
-79955
68238.3
-75915.5
64648
-72084.6
61236.5
-68446
57993.4
-64990.8
54911.5
-61710.2
51983.2
-58593.8
49198.4
-55635.5
46552.7
-52825
44037.2
-50157.8
41647.6
-47625
39375.1
-45219.2
37215.2
-42934.5
35160.8
-40764.8
33210.2
-38707.2
31354.8
-36749.8
29590.2
-34892.6
27912
-33128.2
26318.8
-31455
24803.3
-29864.2
23361.2
-28354.3
21991
-26920.8
20689.8
-25559.2
19451.7
-24266.6
18272.7
-23037.2
17153.9
-21872.2
16088.2
-20764.4
15077.1
-19713.7
14116.2
-18715.7
13201.2
-17766.1
12330.7
-16866.2
11504.7
-16011.6
10720.2
-15199.4
9972.99
-14428.3
9263.06
-13696.5
8589
-13001.4
7947.89
-12341.4
7339.68
-11715.1
6761.55
-11119.7
6212.61
-10555.7
5690.05
-10019.8
5194.23
-9511.43
4723.54
-9029.61
4276.56
-8572.84
3852.28
-8140.03
3449.38
-7730.56
3067.23
-7343.75
2704.42
-6978.67
2360.2
-6635.36
2033.74
-6314.41
1724.18
-6014.86
1430.38
-5741.76
1152.3
-5489.59
888.737
-5283.44
639.568
-5086.27
408.71
-5016
183.864
-4890.35
-5224.84
386044
-375630
366549
-356783
348050
-338916
330461
-321915
313754
-305761
297886
-290430
282812
-275848
268490
-261987
254874
-248819
241950
-236315
229675
-224444
218003
-213150
206921
-202432
196398
-192246
186390
-182563
176898
-173383
167862
-164646
159283
-156354
151144
-148490
143403
-140997
136045
-133889
129069
-127151
122431
-120738
116131
-114652
110140
-108861
104442
-103367
99053.4
-98168.9
93914.1
-93207.8
89024.3
-88498.5
84384.1
-84026.1
79985.9
-79797.8
75794.5
-75763.7
71815.8
-71936.8
68033.5
-68302.3
64440.4
-64852.8
61026.1
-61576.5
57780.3
-58464.4
54695.6
-55509.1
51764.8
-52704.6
48978.9
-50039.1
46332.2
-47511.1
43814.4
-45107.2
41422.5
-42827.4
39147.8
-40659.8
36987.3
-38604.3
34932.3
-36652.1
32978.4
-34795.9
31122.6
-33036.8
29359.2
-31364.8
27680.9
-29776.7
26086.1
-28269.5
24569.2
-26837.3
23127.1
-25478.7
21757
-24189.1
20453.1
-22962.7
19215.4
-21799.5
18038.1
-20694.9
16918.3
-19644.6
15854.6
-18650
14842.6
-17703.7
13880.9
-16804.4
12966.5
-15951.9
12098.1
-15143.2
11272.8
-14374.1
10487.7
-13643.1
9741.32
-12950.1
9032.24
-12292.3
8358.92
-11668.1
7718.67
-11074.9
7110.22
-10511.2
6532.14
-9977.58
5983.26
-9470.96
5462.09
-8990.27
4966.96
-8534.47
4496.81
-8102.7
4050.45
-7693.66
3626.72
-7306.83
3224.3
-6941.32
2842.39
-6596.76
2479.97
-6272.93
2135.74
-5970.18
1809.18
-5688.29
1498.88
-5431.45
1204.58
-5195.27
924.469
-5003.31
659.114
-4820.88
408.757
-4765.61
167.389
-4648.96
-5057.41
404448
-354137
384055
-336390
364659
-319519
346246
-303502
328744
-288260
312110
-273796
296315
-260053
281315
-246987
267050
-234555
253522
-222786
240642
-211564
228424
-200933
216811
-190819
205786
-181222
195306
-172083
185356
-163433
175892
-155182
166914
-147376
158377
-139954
150267
-132887
142568
-126191
135252
-119835
128289
-113775
121694
-108056
115422
-102589
109458
-97403.7
103789
-92499.2
98398.2
-87817.3
93286.6
-83386.9
88442.1
-79181.7
83819.4
-75175.1
79431.5
-71375.7
75262.2
-67767.5
71301.2
-64341.3
67536.7
-61088.3
63958.4
-57998.2
60559
-55065
57328.2
-52278.3
54257.1
-49633.5
51339.9
-47122
48566.3
-44737.5
45930.5
-42471.4
43423.6
-40320.5
41044.2
-38280.4
38780.6
-36340.7
36627
-34498.5
34583.2
-32752.1
32639.2
-31092.8
30790.5
-29516.1
29034.3
-28020.4
27363.2
-26598.4
25777.1
-25251.3
24267.6
-23969.1
22832.9
-22754.5
21468.9
-21598.7
20172.6
-20503.2
18939.7
-19461.9
17768.6
-18473.6
16655.1
-17536.5
15594.9
-16643.5
14589.3
-15798.8
13634
-14996.5
12723.3
-14232.5
11858.6
-13509.4
11038.3
-12822.9
10258.3
-12170.1
9515.66
-11549.7
8810.4
-10962.8
8140.99
-10405.5
7505.33
-9875.59
6900.92
-9373.18
6326.73
-8896.77
5781.17
-8444.72
5263.32
-8016.63
4771.32
-7610.7
4304.13
-7226.48
3860.53
-6863.24
3439.37
-6520.17
3039.54
-6196.94
2659.98
-5893.37
2299.43
-5609.65
1957.02
-5345.89
1631.68
-5106.13
1322.75
-4886.36
1028.17
-4708.75
748.954
-4541.68
482.988
-4499.66
228.276
-4394.28
-4829.17
421834
-331761
400543
-315099
380338
-299314
361116
-284280
342878
-270022
325538
-256455
309050
-243565
293402
-231338
278548
-219701
264415
-208654
251004
-198153
238256
-188184
226141
-178703
214629
-169710
203706
-161161
193328
-153055
183465
-145320
174103
-138013
165197
-131047
156747
-124437
148709
-118153
141068
-112194
133824
-106532
126933
-101165
120380
-96036.5
114180
-91203.5
108259
-86578.4
102647
-82204.9
97319.6
-78059.5
92244.8
-74106.9
87429.9
-70360.2
82852.8
-66798.6
78506.1
-63420.8
74375.1
-60210.3
70448.1
-57161.3
66717.6
-54267.8
63172
-51519.3
59803.8
-48910.1
56601.3
-46431.1
53558.6
-44079.3
50665.5
-41844.4
47917.6
-39723.4
45306
-37708.9
42821.9
-35796.3
40461.1
-33979.9
38219
-32256.4
36086.9
-30620.1
34059
-29064.9
32132.3
-27589.4
30301
-26189.1
28562.2
-24859.5
26905.8
-23594.9
25334.4
-22397.8
23838.2
-21258.3
22417
-20177.5
21066.4
-19152.6
19782.1
-18177.7
18561.3
-17252.7
17399.5
-16374.7
16298.2
-15542.2
15250.1
-14750.7
14252.5
-13998.9
13306.6
-13286.6
12405.4
-12608.2
11550.1
-11967.6
10736.5
-11356.6
9964.56
-10777.7
9229.98
-10228.3
8531.92
-9707.41
7869.08
-9212.75
7239.39
-8743.48
6641.06
-8298.45
6073.05
-7876.71
5533.23
-7476.81
5020.66
-7098.13
4533.89
-6739.7
4071.55
-6400.9
3632.6
-6081.21
3215.76
-5780.1
2819.62
-5497.23
2443.58
-5233.6
2086.11
-4988.41
1746.08
-4766.08
1423
-4563.25
1114.28
-4400
821.225
-4248.6
539.916
-4218.31
270.689
-4125.03
-4558.44
438084
-308488
415999
-293015
394984
-278299
375042
-264337
356083
-251063
338080
-238452
320974
-226459
304721
-215086
289278
-204258
274600
-193976
260673
-184226
247424
-174935
234851
-166131
222912
-157771
211561
-149810
200770
-142264
190538
-135088
180792
-128267
171546
-121802
162757
-115648
154423
-109819
146501
-104272
138962
-98992.3
131790
-93993.8
125001
-89247.1
118535
-84737.6
112407
-80450.4
106582
-76379.6
101036
-72513.5
95771.7
-68842.9
90769
-65357.5
86017.5
-62047.1
81500.8
-58904.2
77208.9
-55918.3
73131.1
-53083.5
69257.3
-50394
65574.3
-47836.3
62074.6
-45410.4
58749.6
-43106
55588.8
-40918.5
52585
-38840.6
49730.8
-36869.2
47017.4
-34995.5
44439
-33217.9
41989.7
-31530.5
39660.7
-29927.4
37446.1
-28405.5
35341.7
-26960.4
33341.4
-25589.2
31441
-24288.7
29633.2
-23051.7
27916.5
-21878.1
26282.1
-20763.5
24730.1
-19706.2
23256
-18703.5
21852.8
-17749.3
20520.2
-16845.1
19252.5
-15985
18049.7
-15171.9
16904.6
-14397
15815.7
-13661.8
14781.5
-12964.7
13797.8
-12302.9
12865.7
-11676.1
11977
-11078.9
11132.9
-10512.4
10331.8
-9976.69
9570.42
-9466.89
8846.54
-8983.54
8158.84
-8525.05
7505.54
-8090.18
6884.93
-7677.84
6295.4
-7287.17
5735.45
-6916.87
5203.49
-6566.17
4698.44
-6234.66
4218.8
-5921.27
3763.09
-5625.51
3330.19
-5347.21
2919.2
-5086.24
2528.27
-4842.69
2156.79
-4616.93
1802.94
-4412.25
1466.09
-4226.42
1143.55
-4077.48
836.116
-3941.18
537.669
-3919.89
252.149
-3839.55
-4306.33
453227
-284436
430348
-270135
408643
-256593
388008
-243702
368388
-231443
349766
-219831
332072
-208764
315245
-198259
299271
-188284
284107
-178812
269679
-169798
255987
-161243
242987
-153130
230620
-145403
218871
-138061
207711
-131104
197110
-124487
187053
-118211
177483
-112231
168398
-106562
159769
-101190
151552
-96055.3
143776
-91216.5
136368
-86585.6
129342
-82221.2
122654
-78049.8
116303
-74099.3
110269
-70346
104537
-66781
99090.9
-63396.9
93916.7
-60183.3
88999.6
-57130
84326.2
-54230.8
79887.7
-51479.8
75669.5
-48865.3
71659.8
-46384.2
67851.1
-44027.6
64231.7
-41791.1
60791.4
-39665.7
57521.3
-37648.4
54415.5
-35734.9
51462.4
-33916.1
48656
-32189.1
45989.1
-30551
43454.2
-28995.6
41044.1
-27517.3
38754.3
-26115.8
36579.1
-24785.2
34511.1
-23521.2
32544.5
-22322.1
30674.9
-21182.1
28899.3
-20102.6
27210.6
-19074.7
25607.1
-18102.8
24080.3
-17176.6
22631.4
-16300.5
21252
-15465.6
19943.2
-14676.3
18698
-13926.7
17513.4
-13212.5
16389.4
-12537.8
15321.5
-11896.9
14305.6
-11287
13338.7
-10709.3
12422.1
-10162.3
11550.5
-9640.82
10721.5
-9147.7
9934.22
-8679.58
9186.3
-8235.62
8475.59
-7814.34
7800.5
-7415.09
7159.24
-7036.58
6549.93
-6677.86
5971.22
-6338.16
5421.64
-6016.59
4899.56
-5712.57
4403.75
-5425.46
3932.83
-5154.58
3485.42
-4899.8
3060.23
-4661.05
2656.13
-4438.58
2271.84
-4232.62
1905.79
-4046.18
1557.03
-3877.65
1222.54
-3742.97
903.514
-3622.12
591.317
-3607.64
293.25
-3541.45
-4013.03
467162
-259647
443606
-246580
421209
-234196
399943
-222435
379748
-211248
360538
-200621
342299
-190525
324971
-180931
308512
-171825
292862
-163162
278006
-154943
263902
-147138
250474
-139703
237738
-132667
225635
-125958
214135
-119604
203224
-113576
192829
-107815
182978
-102380
173612
-97196.8
164702
-92280.6
156263
-87616.4
148222
-83174.7
140606
-78970.3
133341
-74956
126455
-71163.9
119910
-67554.4
113692
-64127.4
107785
-60874
102172
-57783.8
96836.4
-54847.9
91768.3
-52061.8
86952.9
-49415.4
82376.9
-46903.8
78030
-44518.3
73897.4
-42251.6
69970.4
-40100.6
66238.6
-38059.3
62693.3
-36120.4
59325.5
-34280.7
56122.2
-32531.6
53079
-30872.8
50186.9
-29297
47438.6
-27802.7
44825.5
-26382.5
42344.5
-25036.3
39983.9
-23755.2
37740.9
-22542.2
35609.5
-21389.8
33583.9
-20296.5
31658.3
-19256.5
29826.8
-18271.1
28089.4
-17337.3
26434.5
-16447.9
24863.5
-15605.6
23369.2
-14806.1
21950
-14046.4
20600.2
-13326.5
19316.9
-12643.3
18099.9
-11995.5
16940.7
-11378.6
15839.2
-10795.4
14792.6
-10240.3
13799.2
-9715.91
12852.7
-9215.79
11955.2
-8743.31
11101.9
-8294.43
10291.1
-7868.77
9520.66
-7465.22
8788.79
-7082.48
8093.4
-6719.7
7432.84
-6376.03
6805.39
-6050.43
6209.3
-5742.08
5643.32
-5450.61
5105.56
-5174.82
4594.78
-4914.69
4109.6
-4669.41
3648.72
-4438.93
3210.6
-4222.93
2794.2