/*--------------------------------*- C++ -*----------------------------------*\
  =========                 |
  \\      /  F ield         | OpenFOAM: The Open Source CFD Toolbox
   \\    /   O peration     | Website:  https://openfoam.org
    \\  /    A nd           | Version:  11
     \\/     M anipulation  |
\*---------------------------------------------------------------------------*/
FoamFile
{
    format      ascii;
    class       volVectorField;
    location    "100";
    object      U;
}
// * * * * * * * * * * * * * * * * * * * * * * * * * * * * * * * * * * * * * //

dimensions      [0 1 -1 0 0 0 0];

internalField   nonuniform List<vector> 
31595
(
(25.556 3.35234 -7.79401e-19)
(25.6894 3.43167 2.77154e-19)
(25.643 3.4552 1.17633e-18)
(25.6538 3.44816 1.32474e-18)
(25.6368 3.45004 0)
(25.63 3.45376 0)
(25.6113 3.45463 0)
(25.5957 3.45579 1.0143e-18)
(25.5758 3.45695 3.05349e-20)
(25.5557 3.45815 0)
(25.5335 3.45934 0)
(25.5104 3.46067 7.49394e-19)
(25.4859 3.46211 -7.89533e-19)
(25.4604 3.46369 9.09934e-19)
(25.4337 3.46543 -9.58751e-19)
(25.4058 3.46735 1.07243e-18)
(25.3768 3.46945 0)
(25.3467 3.47177 -1.33999e-18)
(25.3154 3.47432 2.84505e-18)
(25.2829 3.47711 -8.12634e-19)
(25.2491 3.48018 8.56426e-19)
(25.214 3.48352 0)
(25.1777 3.48717 0)
(25.1399 3.49113 1.19408e-18)
(25.1008 3.49543 -6.01498e-19)
(25.0602 3.50007 3.05101e-20)
(25.018 3.50508 -1.52439e-18)
(24.9744 3.51046 -8.7569e-19)
(24.9291 3.51624 1.88646e-18)
(24.8821 3.52241 -2.0449e-18)
(24.8334 3.529 0)
(24.7829 3.53599 -6.13341e-19)
(24.7305 3.5434 7.04406e-19)
(24.6762 3.55123 -7.42963e-19)
(24.6199 3.55947 8.39112e-19)
(24.5616 3.56811 -9.35364e-19)
(24.5011 3.57716 4.94361e-19)
(24.4383 3.5866 1.6546e-18)
(24.3732 3.59641 0)
(24.3057 3.60657 -6.81284e-19)
(24.2357 3.61704 1.45696e-18)
(24.163 3.62779 0)
(24.0876 3.63878 0)
(24.0093 3.64996 -5.02592e-19)
(23.9278 3.66129 2.10669e-18)
(23.8432 3.67271 0)
(23.7552 3.68417 -6.56936e-19)
(23.6637 3.69561 1.40541e-18)
(23.5683 3.70696 -7.93025e-19)
(23.469 3.71816 8.60566e-19)
(23.3655 3.72913 -2.34057e-18)
(23.2575 3.73979 5.05229e-19)
(23.1448 3.75004 -1.70813e-18)
(23.027 3.7598 2.492e-18)
(22.9038 3.76895 -6.63267e-19)
(22.775 3.77739 -1.5021e-18)
(22.64 3.78498 -8.50426e-19)
(22.4985 3.79159 -4.89498e-19)
(22.35 3.79706 -1.0397e-18)
(22.1941 3.80123 1.65988e-18)
(22.0301 3.80392 -1.08885e-20)
(21.8575 3.80489 6.80143e-19)
(21.6757 3.80393 3.55339e-20)
(21.4839 3.80077 -3.83548e-19)
(21.2813 3.7951 4.86588e-19)
(21.067 3.78657 -2.04421e-18)
(20.8401 3.77477 -5.76056e-19)
(20.5994 3.75924 6.32001e-19)
(20.3437 3.73944 2.11905e-18)
(20.0716 3.71471 5.05039e-20)
(19.7815 3.6843 -1.26434e-18)
(19.4716 3.64731 2.14079e-20)
(19.1399 3.60266 1.10493e-18)
(18.7841 3.54901 0)
(18.4014 3.48479 1.3837e-18)
(17.9887 3.40801 0)
(17.5424 3.31624 8.84095e-19)
(17.0583 3.20638 0)
(16.5313 3.07461 0)
(15.9555 2.91582 0)
(15.3239 2.72381 1.52698e-18)
(14.6281 2.48937 8.82581e-19)
(13.8581 2.20298 -1.56754e-18)
(13.0018 1.84452 -1.26582e-18)
(12.0461 1.4054 7.22959e-19)
(10.9713 0.823415 4.62386e-19)
(9.77238 0.143686 5.95814e-19)
(8.39126 -0.930585 -7.40247e-19)
(6.99857 -1.85574 9.54576e-19)
(25.6543 3.38897 2.42045e-18)
(25.6625 3.43372 1.29447e-18)
(25.6649 3.47088 1.11299e-18)
(25.6539 3.46446 -3.8158e-18)
(25.6425 3.4656 0)
(25.6302 3.46994 0)
(25.6142 3.47204 1.71065e-18)
(25.5966 3.47362 0)
(25.5774 3.47552 0)
(25.5569 3.47745 -2.2972e-18)
(25.535 3.47945 -3.83701e-18)
(25.5119 3.48159 2.76989e-18)
(25.4877 3.48391 1.53721e-18)
(25.4623 3.48643 3.43847e-18)
(25.4358 3.48915 -1.83889e-18)
(25.4082 3.49211 -1.04087e-18)
(25.3795 3.4953 1.16602e-18)
(25.3496 3.49876 -3.72005e-18)
(25.3186 3.50249 2.30876e-20)
(25.2864 3.50651 -3.0006e-18)
(25.2529 3.51086 0)
(25.2183 3.51553 0)
(25.1823 3.52054 0)
(25.1449 3.52593 0)
(25.1062 3.53169 2.44138e-18)
(25.0661 3.53785 0)
(25.0244 3.54442 2.9789e-18)
(24.9812 3.55142 0)
(24.9363 3.55885 1.78946e-18)
(24.8898 3.56673 9.99575e-19)
(24.8416 3.57507 -1.1156e-18)
(24.7916 3.58387 1.15879e-18)
(24.7397 3.59314 1.29398e-18)
(24.6859 3.60289 -1.48315e-18)
(24.63 3.6131 1.5645e-18)
(24.5721 3.62378 -8.95984e-19)
(24.512 3.63492 1.91602e-18)
(24.4496 3.64652 -1.06692e-18)
(24.3849 3.65854 0)
(24.3178 3.67098 0)
(24.2481 3.68382 -2.83034e-18)
(24.1757 3.69701 -1.74036e-20)
(24.1005 3.71054 0)
(24.0223 3.72437 1.85093e-18)
(23.9411 3.73844 -2.01939e-18)
(23.8565 3.75273 -1.10491e-18)
(23.7686 3.76717 0)
(23.677 3.78171 0)
(23.5816 3.79631 0)
(23.4821 3.8109 8.26992e-19)
(23.3784 3.8254 9.09416e-19)
(23.27 3.83976 1.0003e-18)
(23.1569 3.85389 1.10061e-18)
(23.0386 3.8677 -1.21135e-18)
(22.9148 3.88111 6.41937e-19)
(22.7852 3.894 -2.91351e-20)
(22.6494 3.90627 1.6136e-18)
(22.507 3.91778 -8.86927e-19)
(22.3574 3.92841 9.71169e-19)
(22.2002 3.93799 -1.05864e-18)
(22.0348 3.94635 -5.62432e-19)
(21.8606 3.95331 -1.96585e-18)
(21.677 3.95863 7.34451e-19)
(21.4831 3.96207 -8.28665e-19)
(21.2781 3.96334 -2.01969e-20)
(21.0612 3.96212 3.01484e-18)
(20.8313 3.95802 -1.10907e-18)
(20.5872 3.95058 2.47076e-18)
(20.3277 3.93931 -2.02098e-18)
(20.0512 3.92356 7.78696e-19)
(19.7562 3.90261 -8.77538e-19)
(19.4408 3.87559 9.40418e-19)
(19.1027 3.84141 -1.63062e-18)
(18.7396 3.79879 1.18355e-18)
(18.3486 3.74614 -6.98977e-19)
(17.9263 3.6815 0)
(17.4689 3.60239 1.75705e-18)
(16.9718 3.50572 2.0037e-18)
(16.4296 3.38753 2.29556e-18)
(15.8361 3.24261 6.77727e-19)
(15.1835 3.06446 -3.06006e-18)
(14.4629 2.8436 -9.17195e-19)
(13.6633 2.56952 -2.1099e-18)
(12.7718 2.22176 3.12071e-18)
(11.7732 1.78825 1.51748e-18)
(10.6489 1.20803 -3.26194e-18)
(9.3852 0.512019 -1.76536e-18)
(7.94589 -0.577491 -3.85654e-18)
(6.40326 -1.5736 5.23408e-18)
(25.6743 3.42922 -2.00313e-18)
(25.6695 3.45086 -2.11133e-18)
(25.672 3.48547 2.22231e-18)
(25.6595 3.48209 1.23097e-19)
(25.6462 3.482 -2.78899e-18)
(25.6328 3.48632 2.93731e-18)
(25.6166 3.48912 3.31671e-18)
(25.5987 3.49125 -1.78696e-18)
(25.5795 3.49373 0)
(25.5589 3.49637 2.23701e-18)
(25.5371 3.49912 2.46594e-18)
(25.5141 3.50206 -1.35874e-18)
(25.49 3.50525 -1.497e-18)
(25.4648 3.50869 -1.70032e-18)
(25.4385 3.51239 1.76603e-18)
(25.4112 3.51637 0)
(25.3827 3.52064 2.2382e-18)
(25.3531 3.52522 2.45641e-18)
(25.3224 3.53013 0)
(25.2905 3.53539 -1.42388e-18)
(25.2574 3.541 0)
(25.2231 3.547 -1.75409e-18)
(25.1875 3.5534 0)
(25.1505 3.56021 4.31761e-18)
(25.1122 3.56745 -4.61543e-18)
(25.0724 3.57513 -5.11728e-18)
(25.0312 3.58328 -2.9012e-18)
(24.9884 3.5919 1.54029e-18)
(24.944 3.60101 -1.74365e-18)
(24.8979 3.61063 0)
(24.8502 3.62075 0)
(24.8006 3.63139 -1.17631e-18)
(24.7492 3.64256 2.45562e-18)
(24.6958 3.65426 1.36437e-18)
(24.6404 3.66649 0)
(24.5829 3.67925 0)
(24.5232 3.69254 -1.88945e-18)
(24.4613 3.70635 1.994e-18)
(24.397 3.72066 -1.14145e-18)
(24.3302 3.73547 4.89445e-18)
(24.2608 3.75075 2.75373e-18)
(24.1887 3.76649 3.98649e-20)
(24.1138 3.78266 -1.61742e-18)
(24.0358 3.79922 -2.84933e-20)
(23.9547 3.81615 1.98577e-18)
(23.8704 3.83339 -2.14952e-18)
(23.7825 3.85092 1.21638e-18)
(23.6909 3.86869 1.44772e-20)
(23.5954 3.88665 0)
(23.4958 3.90474 -1.57368e-18)
(23.3919 3.92291 -1.73208e-18)
(23.2833 3.9411 1.90698e-18)
(23.1697 3.95923 -1.02044e-18)
(23.051 3.97723 -2.33245e-18)
(22.9267 3.99502 -3.18804e-20)
(22.7964 4.01251 1.44544e-18)
(22.6599 4.02959 -1.53149e-18)
(22.5165 4.04616 -8.79992e-19)
(22.3659 4.06208 2.80927e-18)
(22.2075 4.07723 1.01356e-18)
(22.0408 4.09143 1.1402e-18)
(21.8651 4.10451 1.29264e-18)
(21.6797 4.11627 -1.41814e-18)
(21.4838 4.12648 0)
(21.2767 4.13486 0)
(21.0573 4.14112 -3.91471e-18)
(20.8245 4.14488 -1.09684e-18)
(20.5773 4.14573 0)
(20.3142 4.14317 0)
(20.0337 4.13661 -1.50973e-18)
(19.7341 4.12534 0)
(19.4134 4.10851 -2.85354e-18)
(19.0695 4.08507 1.04039e-18)
(18.6995 4.05375 2.77161e-20)
(18.3006 4.01299 -3.37006e-18)
(17.8693 3.96083 7.50868e-19)
(17.4014 3.89481 -2.59744e-18)
(16.8921 3.81179 -2.97331e-18)
(16.3356 3.70775 -2.29277e-18)
(15.7251 3.5774 2.64924e-18)
(15.0524 3.41395 -3.08221e-18)
(14.3077 3.20768 1.80241e-18)
(13.479 2.9472 2.13294e-18)
(12.5524 2.61174 -5.78117e-18)
(11.5107 2.18592 7.6182e-19)
(10.335 1.60996 1.43232e-18)
(9.00601 0.901152 6.05622e-19)
(7.49975 -0.201918 8.98483e-18)
(5.85607 -1.2748 -8.06215e-18)
(25.6886 3.46295 -1.73544e-18)
(25.6767 3.47147 -2.035e-18)
(25.6771 3.50114 -2.04082e-18)
(25.6643 3.49949 2.41737e-18)
(25.6499 3.49877 5.89179e-20)
(25.6356 3.5028 0)
(25.6193 3.50608 5.7312e-20)
(25.6013 3.50874 -1.75205e-18)
(25.5819 3.51175 1.89947e-18)
(25.5614 3.51505 0)
(25.5397 3.51853 2.41334e-18)
(25.5169 3.52227 -2.54258e-18)
(25.493 3.52631 -2.92735e-18)
(25.4681 3.53065 1.49684e-18)
(25.4421 3.53531 0)
(25.415 3.5403 0)
(25.3869 3.54564 -2.08283e-18)
(25.3577 3.55133 -2.33403e-18)
(25.3273 3.5574 2.52388e-18)
(25.2958 3.56387 5.69829e-18)
(25.2631 3.57074 3.36307e-20)
(25.2292 3.57805 -3.38928e-18)
(25.194 3.5858 -8.07856e-20)
(25.1575 3.59402 -6.03609e-20)
(25.1197 3.60272 4.28025e-20)
(25.0804 3.61191 2.51545e-18)
(25.0397 3.62162 0)
(24.9974 3.63186 1.54286e-18)
(24.9535 3.64263 -3.32427e-18)
(24.908 3.65396 -1.8854e-18)
(24.8608 3.66586 -8.4519e-20)
(24.8117 3.67833 -2.17012e-20)
(24.7608 3.69139 -2.45294e-18)
(24.708 3.70504 0)
(24.6532 3.71928 0)
(24.5962 3.73412 -1.65136e-18)
(24.5371 3.74956 -1.70999e-20)
(24.4756 3.76558 0)
(24.4118 3.78219 0)
(24.3455 3.79938 -2.38319e-18)
(24.2765 3.81713 -1.31003e-18)
(24.2048 3.83542 2.82894e-18)
(24.1303 3.85424 3.18701e-18)
(24.0527 3.87356 -1.72411e-18)
(23.9719 3.89336 3.8207e-18)
(23.8878 3.9136 5.67397e-20)
(23.8001 3.93425 0)
(23.7087 3.95527 -1.27395e-18)
(23.6134 3.97663 2.75837e-18)
(23.5138 3.99827 3.10656e-18)
(23.4098 4.02015 -1.62768e-18)
(23.3012 4.04222 -1.87055e-18)
(23.1875 4.06441 2.0607e-18)
(23.0685 4.08667 0)
(22.9439 4.10892 -2.46857e-18)
(22.8132 4.13108 0)
(22.6761 4.15307 0)
(22.5321 4.17479 0)
(22.3807 4.19612 -1.85989e-18)
(22.2215 4.21694 1.04475e-18)
(22.0537 4.23712 1.13938e-18)
(21.8767 4.25648 0)
(21.6899 4.27485 5.45106e-20)
(21.4925 4.29202 2.18732e-20)
(21.2835 4.30774 0)
(21.0619 4.32173 9.3988e-19)
(20.8268 4.33365 1.05956e-18)
(20.5768 4.34311 -2.35686e-18)
(20.3105 4.34965 0)
(20.0264 4.3527 0)
(19.7226 4.35159 0)
(19.3971 4.34552 9.14886e-19)
(19.0476 4.33345 1.02715e-18)
(18.6713 4.31418 0)
(18.265 4.28618 -3.13021e-20)
(17.8251 4.24752 4.53478e-18)
(17.347 4.19575 8.49556e-19)
(16.8258 4.12776 1.99736e-18)
(16.2552 4.0395 -4.00499e-18)
(15.628 3.9256 -3.56059e-20)
(14.9351 3.77911 7.57223e-19)
(14.166 3.59007 -9.39955e-19)
(13.3077 3.34631 1.06216e-18)
(12.3446 3.02673 5.25032e-18)
(11.2579 2.61269 0)
(10.0271 2.04553 4.57461e-18)
(8.62841 1.32808 4.62081e-18)
(7.04614 0.213414 -7.00957e-18)
(5.2886 -0.93429 4.4554e-18)
(25.6946 3.49104 3.42873e-18)
(25.6816 3.4915 0)
(25.6812 3.51681 1.99956e-18)
(25.6686 3.51634 4.5684e-18)
(25.6534 3.5154 -2.41525e-18)
(25.6387 3.51912 -2.73125e-18)
(25.6223 3.52276 6.2025e-18)
(25.6042 3.52592 -6.74362e-18)
(25.5849 3.52945 0)
(25.5645 3.53339 2.11114e-18)
(25.543 3.5376 -2.22412e-18)
(25.5204 3.54212 0)
(25.4967 3.54699 0)
(25.4721 3.55222 0)
(25.4464 3.55783 3.30489e-18)
(25.4197 3.56382 0)
(25.3919 3.5702 2.04148e-18)
(25.3631 3.577 -2.27712e-18)
(25.3332 3.58422 -7.38771e-20)
(25.3021 3.59188 -2.66822e-18)
(25.2699 3.6 -3.09688e-18)
(25.2364 3.6086 6.49907e-18)
(25.2017 3.6177 0)
(25.1657 3.62731 3.9134e-18)
(25.1284 3.63745 4.35188e-18)
(25.0897 3.64814 -8.02062e-20)
(25.0495 3.6594 2.58247e-18)
(25.0078 3.67123 0)
(24.9645 3.68367 0)
(24.9195 3.69671 3.56724e-18)
(24.8729 3.71037 -1.82807e-18)
(24.8244 3.72467 -2.03655e-18)
(24.7742 3.73962 2.31034e-18)
(24.7219 3.75522 2.54119e-18)
(24.6677 3.77148 -2.88757e-18)
(24.6113 3.7884 4.63506e-18)
(24.5528 3.806 5.04923e-20)
(24.4919 3.82426 0)
(24.4286 3.84318 -2.04505e-18)
(24.3628 3.86276 0)
(24.2944 3.883 2.47414e-18)
(24.2232 3.90387 -5.49791e-18)
(24.1491 3.92538 -1.54476e-18)
(24.072 3.94749 -4.74535e-20)
(23.9916 3.9702 -3.71683e-18)
(23.9079 3.99347 4.03266e-18)
(23.8205 4.01729 8.95859e-20)
(23.7294 4.04161 -2.39345e-18)
(23.6343 4.06642 1.32337e-18)
(23.5349 4.09166 -1.45116e-18)
(23.4311 4.11732 1.64343e-18)
(23.3225 4.14333 -5.45354e-20)
(23.2088 4.16965 -8.04836e-20)
(23.0897 4.19624 2.14212e-18)
(22.9649 4.22303 2.42839e-18)
(22.834 4.24996 -1.35917e-18)
(22.6965 4.27694 -6.04389e-20)
(22.5521 4.30391 -6.70786e-20)
(22.4001 4.33076 3.54402e-18)
(22.2401 4.35738 -1.01607e-18)
(22.0715 4.38366 -7.61684e-20)
(21.8935 4.40945 3.62128e-18)
(21.7056 4.4346 2.72564e-18)
(21.5067 4.4589 -4.50376e-18)
(21.2961 4.48216 -1.71182e-18)
(21.0727 4.5041 1.82549e-18)
(20.8353 4.52443 2.08808e-18)
(20.5828 4.54278 2.41268e-20)
(20.3136 4.55872 0)
(20.0262 4.57173 -1.48843e-18)
(19.7185 4.5812 2.43248e-18)
(19.3886 4.58633 -8.98182e-19)
(19.0338 4.58619 0)
(18.6514 4.57959 -1.20059e-18)
(18.2381 4.56507 1.29884e-18)
(17.7897 4.54074 -3.03267e-18)
(17.3019 4.50422 -3.44913e-18)
(16.769 4.45242 3.9637e-18)
(16.1844 4.38132 4.58763e-18)
(15.5404 4.28553 -5.99583e-21)
(14.8272 4.15797 3.12649e-18)
(14.0333 3.98854 9.5064e-19)
(13.1444 3.76436 -5.50351e-18)
(12.1434 3.46406 -2.68165e-18)
(11.0093 3.06588 0)
(9.71932 2.51199 -4.20459e-18)
(8.24592 1.79055 -6.24079e-18)
(6.57586 0.666961 8.59209e-18)
(4.68069 -0.548791 0)
(25.6995 3.51417 0)
(25.6856 3.5102 0)
(25.6846 3.53194 0)
(25.6722 3.53239 -2.1982e-18)
(25.6568 3.53153 -2.50946e-18)
(25.6418 3.53506 2.64331e-18)
(25.6254 3.53903 -5.14025e-20)
(25.6074 3.54269 -3.24903e-18)
(25.5882 3.54677 -3.5798e-18)
(25.568 3.55133 0)
(25.5467 3.55625 -4.33769e-18)
(25.5244 3.56154 0)
(25.5011 3.56724 2.62675e-18)
(25.4768 3.57336 0)
(25.4515 3.57991 -3.24886e-18)
(25.4252 3.58688 3.6199e-18)
(25.3978 3.5943 3.52497e-20)
(25.3694 3.60218 0)
(25.34 3.61054 2.33082e-18)
(25.3094 3.61938 -2.59572e-18)
(25.2777 3.62874 -8.93592e-20)
(25.2448 3.63861 -3.1055e-18)
(25.2106 3.64904 3.41714e-18)
(25.1752 3.66003 -7.60797e-18)
(25.1384 3.6716 -2.11733e-18)
(25.1003 3.68377 2.60124e-20)
(25.0607 3.69656 -2.48414e-18)
(25.0196 3.70998 0)
(24.977 3.72406 3.13745e-18)
(24.9327 3.7388 -3.19287e-18)
(24.8867 3.75422 -1.76234e-18)
(24.8389 3.77034 4.08446e-18)
(24.7893 3.78717 -4.56961e-18)
(24.7377 3.80471 -2.60338e-18)
(24.6841 3.82299 -1.13128e-19)
(24.6284 3.842 5.88913e-18)
(24.5706 3.86176 0)
(24.5103 3.88226 0)
(24.4477 3.9035 -2.15124e-20)
(24.3826 3.9255 -1.71438e-20)
(24.3148 3.94823 -2.43575e-18)
(24.2442 3.97171 -2.91044e-20)
(24.1706 3.99592 -1.51368e-18)
(24.094 4.02085 3.10961e-18)
(24.0142 4.04649 1.73298e-18)
(23.9309 4.07282 0)
(23.8441 4.09983 0)
(23.7533 4.1275 2.40935e-18)
(23.6586 4.15579 -5.17157e-18)
(23.5596 4.18468 0)
(23.456 4.21415 -4.73615e-18)
(23.3476 4.24416 -1.82707e-18)
(23.2341 4.27467 1.88243e-18)
(23.1151 4.30565 0)
(22.9903 4.33705 2.31712e-18)
(22.8593 4.3688 -1.32033e-18)
(22.7217 4.40086 2.85993e-18)
(22.577 4.43316 -4.68044e-18)
(22.4246 4.46562 -2.85904e-20)
(22.2642 4.49815 0)
(22.0949 4.53064 -2.16301e-18)
(21.9162 4.56299 -2.39958e-18)
(21.7273 4.59504 1.35332e-18)
(21.5273 4.62664 1.56335e-20)
(21.3154 4.6576 1.6043e-18)
(21.0904 4.68769 -3.68054e-18)
(20.8512 4.71663 9.5248e-19)
(20.5964 4.74412 2.30906e-18)
(20.3247 4.76975 -1.24842e-18)
(20.0342 4.79305 0)
(19.723 4.81344 3.19827e-18)
(19.3889 4.83021 3.60506e-18)
(19.0294 4.84247 0)
(18.6412 4.8491 -1.18985e-18)
(18.2211 4.84868 1.67316e-20)
(17.7648 4.83943 -4.46733e-18)
(17.2674 4.81903 2.57373e-18)
(16.7232 4.78446 1.96652e-18)
(16.1249 4.73173 -9.20128e-18)
(15.4642 4.6555 -1.3795e-18)
(14.7307 4.54857 -8.12539e-19)
(13.9117 4.40075 -3.7999e-18)
(12.9916 4.19855 4.45763e-18)
(11.9515 3.92022 -4.89231e-18)
(10.7677 3.54108 8.41976e-19)
(9.41457 3.00339 0)
(7.86052 2.28108 0)
(6.09175 1.15169 1.13107e-18)
(4.02975 -0.11657 -1.68469e-18)
(25.7035 3.53346 0)
(25.6886 3.5272 0)
(25.6875 3.54604 0)
(25.6755 3.54742 1.7313e-19)
(25.6601 3.54693 -2.33408e-18)
(25.6449 3.55044 5.2409e-18)
(25.6287 3.55476 -5.72542e-18)
(25.6108 3.55896 9.58992e-18)
(25.5919 3.5636 1.08255e-19)
(25.5719 3.5688 0)
(25.5509 3.57443 4.27634e-18)
(25.5289 3.5805 2.38133e-18)
(25.506 3.58703 -5.09911e-18)
(25.4821 3.59402 0)
(25.4572 3.60149 3.17078e-18)
(25.4314 3.60945 -3.34146e-18)
(25.4045 3.61789 4.14844e-20)
(25.3767 3.62685 -4.04479e-18)
(25.3477 3.63632 2.45331e-20)
(25.3177 3.64633 8.07481e-20)
(25.2865 3.6569 -9.79766e-20)
(25.2542 3.66804 6.02689e-18)
(25.2206 3.67978 -8.42895e-20)
(25.1858 3.69213 7.32379e-18)
(25.1497 3.70512 0)
(25.1122 3.71875 0)
(25.0733 3.73306 0)
(25.0329 3.74805 0)
(24.9909 3.76376 -5.93507e-18)
(24.9474 3.78019 6.47575e-18)
(24.9021 3.79736 7.18458e-18)
(24.855 3.81528 -1.96523e-18)
(24.8061 3.83399 -4.34847e-18)
(24.7553 3.85347 2.33434e-18)
(24.7025 3.87376 0)
(24.6476 3.89486 -8.70911e-18)
(24.5904 3.91677 -3.26238e-18)
(24.5309 3.93952 -2.34657e-20)
(24.4691 3.96309 0)
(24.4046 3.9875 5.18685e-20)
(24.3375 4.01275 0)
(24.2676 4.03885 -2.61507e-18)
(24.1948 4.06578 5.61279e-18)
(24.1188 4.09354 -3.13723e-18)
(24.0396 4.12214 -1.74475e-18)
(23.957 4.15156 -7.71121e-20)
(23.8707 4.18179 2.0318e-18)
(23.7805 4.21281 0)
(23.6863 4.24463 -2.48742e-18)
(23.5877 4.2772 0)
(23.4846 4.31053 6.1172e-18)
(23.3766 4.34458 -1.72487e-18)
(23.2634 4.37933 1.82706e-18)
(23.1447 4.41475 2.1029e-18)
(23.0201 4.4508 -4.45086e-18)
(22.8892 4.48745 -2.46433e-18)
(22.7517 4.52466 0)
(22.607 4.56237 3.1058e-18)
(22.4545 4.60052 -1.7199e-18)
(22.2938 4.63904 0)
(22.1242 4.67786 -2.07792e-18)
(21.9451 4.71687 0)
(21.7555 4.75596 0)
(21.5547 4.795 -1.47457e-18)
(21.3418 4.83382 3.21644e-18)
(21.1156 4.87223 1.88459e-18)
(20.8749 4.91001 8.97298e-20)
(20.6184 4.94686 6.24677e-20)
(20.3445 4.98246 0)
(20.0514 5.01635 0)
(19.7373 5.04804 -4.72622e-18)
(19.3996 5.07685 -3.52375e-18)
(19.0357 5.10199 -6.02069e-18)
(18.6425 5.12241 -1.18271e-18)
(18.2163 5.13678 3.92162e-18)
(17.7528 5.1434 3.01673e-18)
(17.2466 5.14007 8.86435e-19)
(16.6918 5.12386 -4.97373e-18)
(16.0807 5.09087 4.6488e-18)
(15.4042 5.03583 0)
(14.6511 4.95156 -3.19637e-18)
(13.8078 4.82782 5.81144e-18)
(12.857 4.65066 -2.26165e-18)
(11.7778 4.39799 5.72988e-18)
(10.5436 4.04247 0)
(9.12519 3.52609 0)
(7.48644 2.80898 8.30111e-19)
(5.61002 1.68049 -1.11906e-18)
(3.37926 0.363346 -1.05901e-18)
(25.7073 3.54961 0)
(25.6916 3.54249 0)
(25.69 3.55905 -3.71713e-18)
(25.6786 3.56136 8.42402e-18)
(25.6633 3.56147 -9.15203e-18)
(25.6482 3.56514 -5.03388e-18)
(25.6321 3.56987 -2.85539e-18)
(25.6146 3.57465 3.04651e-18)
(25.5959 3.57989 1.46402e-19)
(25.5762 3.58573 -7.44425e-18)
(25.5556 3.5921 -3.16012e-20)
(25.534 3.59894 -4.43874e-18)
(25.5115 3.60629 -2.35209e-18)
(25.4881 3.61416 1.88417e-20)
(25.4637 3.62255 1.07686e-19)
(25.4384 3.63147 -6.58551e-18)
(25.412 3.64093 7.112e-18)
(25.3847 3.65094 1.45176e-19)
(25.3563 3.66152 -2.05065e-18)
(25.3269 3.67268 -7.10653e-18)
(25.2964 3.68445 -2.68416e-18)
(25.2647 3.69684 -2.87294e-18)
(25.2318 3.70988 -3.24974e-18)
(25.1977 3.72357 3.1804e-20)
(25.1622 3.73795 -1.15995e-17)
(25.1255 3.75304 6.36942e-18)
(25.0873 3.76884 -4.61904e-18)
(25.0476 3.7854 -9.51556e-20)
(25.0064 3.80271 -4.06412e-20)
(24.9636 3.82082 6.26802e-18)
(24.9191 3.83972 -6.8678e-18)
(24.8729 3.85945 -3.84182e-18)
(24.8248 3.88001 8.35691e-18)
(24.7748 3.90143 -2.24937e-18)
(24.7228 3.92372 -5.07083e-18)
(24.6686 3.94689 5.54092e-18)
(24.6123 3.97097 3.09941e-18)
(24.5537 3.99595 3.41096e-18)
(24.4926 4.02186 -3.65398e-18)
(24.429 4.04869 2.06606e-18)
(24.3627 4.07646 0)
(24.2936 4.10517 8.74951e-20)
(24.2216 4.13483 -2.66937e-18)
(24.1464 4.16545 2.95876e-18)
(24.068 4.19701 1.68768e-18)
(23.986 4.22953 -3.64399e-18)
(23.9005 4.263 1.96669e-18)
(23.811 4.29742 2.25954e-18)
(23.7174 4.33277 -2.41556e-18)
(23.6195 4.36906 2.63749e-18)
(23.517 4.40628 -5.935e-18)
(23.4095 4.4444 1.67487e-18)
(23.2969 4.48342 -1.77458e-18)
(23.1786 4.52332 -2.04466e-18)
(23.0545 4.56409 6.66454e-18)
(22.924 4.60569 -4.81797e-18)
(22.7867 4.6481 -1.38488e-18)
(22.6422 4.69128 -1.49799e-18)
(22.4899 4.7352 1.70134e-18)
(22.3292 4.7798 -7.3499e-18)
(22.1596 4.82503 4.07787e-18)
(21.9802 4.87081 -2.3317e-18)
(21.7904 4.91705 3.69798e-18)
(21.5891 4.96366 4.18222e-18)
(21.3755 5.0105 0)
(21.1485 5.05741 0)
(20.9067 5.10422 2.01742e-18)
(20.6489 5.15067 -2.16061e-18)
(20.3734 5.19648 2.45823e-18)
(20.0783 5.24128 0)
(19.7616 5.28461 4.6647e-20)
(19.421 5.3259 -3.52898e-18)
(19.0535 5.3644 -9.78789e-19)
(18.6559 5.3992 1.12014e-18)
(18.2244 5.42905 0)
(17.7543 5.45239 4.52317e-18)
(17.2403 5.46712 -1.68712e-18)
(16.6758 5.47048 1.02968e-18)
(16.0528 5.45873 -2.34067e-18)
(15.3616 5.42673 1.33863e-18)
(14.5901 5.36742 3.27164e-18)
(13.7234 5.27065 0)
(12.7427 5.12219 0)
(11.6248 4.89981 5.93834e-18)
(10.3398 4.57394 -7.60309e-18)
(8.85407 4.0862 0)
(7.12618 3.38355 0)
(5.12977 2.26684 -1.10083e-17)
(2.73062 0.89914 -2.38374e-17)
(25.7109 3.56317 3.1061e-18)
(25.6945 3.55618 -3.35875e-21)
(25.6925 3.57094 -3.7081e-18)
(25.6816 3.57418 0)
(25.6665 3.57508 -4.59647e-18)
(25.6515 3.57907 9.83198e-18)
(25.6357 3.58429 -5.35291e-18)
(25.6185 3.58968 1.03858e-19)
(25.6002 3.59556 -3.20608e-18)
(25.5809 3.60209 0)
(25.5608 3.60918 4.00224e-18)
(25.5396 3.61681 4.40025e-18)
(25.5176 3.62499 -2.3082e-18)
(25.4947 3.63372 2.40105e-18)
(25.4708 3.64303 5.75177e-18)
(25.446 3.6529 -6.36723e-18)
(25.4203 3.66336 3.31595e-18)
(25.3936 3.67442 3.89016e-18)
(25.3659 3.6861 0)
(25.3371 3.6984 9.27551e-18)
(25.3072 3.71135 -5.12169e-18)
(25.2762 3.72497 8.36325e-18)
(25.244 3.73928 0)
(25.2106 3.75431 -3.47451e-18)
(25.176 3.77006 3.63504e-18)
(25.14 3.78658 4.03114e-18)
(25.1026 3.80387 2.29681e-18)
(25.0637 3.82196 -2.52718e-18)
(25.0233 3.84088 2.78108e-18)
(24.9814 3.86064 0)
(24.9377 3.88126 3.26642e-18)
(24.8923 3.90277 -1.38271e-19)
(24.8451 3.92518 1.76318e-18)
(24.796 3.94852 -9.29354e-20)
(24.7449 3.97281 7.34439e-18)
(24.6917 3.99805 1.12233e-19)
(24.6363 4.02428 1.23375e-19)
(24.5785 4.0515 -6.38123e-18)
(24.5184 4.07973 3.62654e-18)
(24.4557 4.10899 -2.01182e-18)
(24.3903 4.13928 -9.02923e-20)
(24.3221 4.17062 4.76213e-18)
(24.251 4.20302 -2.68833e-18)
(24.1767 4.23649 -2.9531e-18)
(24.0991 4.27104 -1.15966e-19)
(24.018 4.30667 8.72321e-18)
(23.9333 4.3434 -3.88749e-18)
(23.8447 4.38122 2.09928e-18)
(23.7519 4.42014 0)
(23.6548 4.46016 -2.57257e-18)
(23.553 4.50129 5.75661e-18)
(23.4463 4.54352 1.62583e-18)
(23.3343 4.58685 -3.39602e-18)
(23.2167 4.63128 -1.90509e-18)
(23.0931 4.6768 0)
(22.9632 4.72339 2.40852e-18)
(22.8264 4.77106 9.18345e-20)
(22.6823 4.81978 9.15376e-20)
(22.5304 4.86954 0)
(22.37 4.9203 7.20308e-18)
(22.2005 4.97203 0)
(22.0213 5.02467 2.20338e-18)
(21.8314 5.07819 -2.50654e-18)
(21.63 5.13249 -2.79465e-18)
(21.416 5.1875 -1.47623e-18)
(21.1885 5.24309 -1.69141e-18)
(20.946 5.29912 0)
(20.6872 5.3554 0)
(20.4104 5.41169 -2.46237e-18)
(20.1137 5.4677 -1.40998e-18)
(19.795 5.52305 1.57087e-18)
(19.4518 5.57723 3.54421e-18)
(19.0811 5.62961 6.07379e-18)
(18.6796 5.67937 -2.22331e-18)
(18.2433 5.72541 2.58368e-18)
(17.7674 5.76631 -4.12341e-20)
(17.2461 5.80015 3.43132e-18)
(16.6725 5.82435 0)
(16.0382 5.8354 0)
(15.3327 5.82839 -5.51489e-18)
(14.5432 5.79649 1.70497e-18)
(13.6534 5.72979 1.00246e-18)
(12.6427 5.61406 1.19612e-18)
(11.4854 5.42712 -4.60236e-18)
(10.1476 5.13784 -1.91344e-18)
(8.59039 4.68744 9.45838e-18)
(6.76455 4.01132 -1.29236e-17)
(4.62179 2.92351 -1.61497e-18)
(2.06911 1.4941 -2.0787e-20)
(25.7145 3.5746 2.43839e-18)
(25.6976 3.56842 0)
(25.695 3.58176 3.62728e-18)
(25.6845 3.58591 0)
(25.6698 3.58774 4.47233e-18)
(25.655 3.59221 -4.71128e-18)
(25.6396 3.59796 2.63502e-18)
(25.6228 3.60402 5.85345e-18)
(25.6048 3.61058 -6.34369e-18)
(25.586 3.61781 -1.43883e-19)
(25.5663 3.62566 3.74558e-18)
(25.5457 3.63408 0)
(25.5242 3.64308 4.67809e-18)
(25.5018 3.65268 -5.14134e-18)
(25.4786 3.66289 -5.5838e-18)
(25.4544 3.67372 2.97743e-18)
(25.4293 3.68517 -1.19105e-19)
(25.4033 3.69726 0)
(25.3762 3.71001 -3.99767e-18)
(25.3482 3.72343 -8.93812e-18)
(25.319 3.73755 2.49796e-18)
(25.2888 3.75238 -5.40696e-18)
(25.2574 3.76795 -2.92458e-18)
(25.2248 3.78429 0)
(25.1909 3.8014 3.53972e-18)
(25.1557 3.81933 3.89466e-18)
(25.1192 3.83809 0)
(25.0812 3.8577 0)
(25.0417 3.8782 0)
(25.0006 3.8996 1.14453e-19)
(24.9579 3.92192 -3.11401e-18)
(24.9134 3.9452 -7.02532e-18)
(24.8672 3.96945 -3.93624e-18)
(24.819 3.99469 4.19223e-18)
(24.7689 4.02096 -2.30794e-18)
(24.7166 4.04827 -2.54119e-18)
(24.6622 4.07664 2.90869e-18)
(24.6055 4.10609 2.32594e-19)
(24.5463 4.13664 -3.38291e-18)
(24.4846 4.16832 -5.68249e-18)
(24.4203 4.20113 2.0527e-18)
(24.3531 4.23509 0)
(24.2829 4.27023 -2.59935e-18)
(24.2096 4.30656 2.83407e-18)
(24.133 4.3441 -3.13666e-18)
(24.0529 4.38285 -3.45878e-18)
(23.9692 4.42284 -3.70315e-18)
(23.8815 4.46408 0)
(23.7897 4.50659 -2.25653e-18)
(23.6935 4.55036 2.56515e-18)
(23.5926 4.59542 -7.91915e-20)
(23.4868 4.64178 0)
(23.3756 4.68944 1.71566e-18)
(23.2589 4.73842 3.78576e-18)
(23.1361 4.78873 -4.19183e-18)
(23.0069 4.84036 2.27227e-18)
(22.8708 4.89333 5.23315e-18)
(22.7274 4.94763 -5.60982e-18)
(22.576 5.00328 0)
(22.4162 5.06025 -3.56243e-18)
(22.2471 5.11855 -3.86786e-18)
(22.0682 5.17815 -2.20586e-18)
(21.8786 5.23902 -2.48953e-18)
(21.6773 5.30112 1.26752e-18)
(21.4633 5.36441 4.55196e-18)
(21.2356 5.4288 -1.74025e-18)
(20.9927 5.4942 5.63123e-18)
(20.7333 5.56048 -2.19347e-18)
(20.4556 5.62746 3.59095e-18)
(20.1577 5.69491 1.36108e-18)
(19.8375 5.76252 3.10235e-18)
(19.4922 5.82991 0)
(19.1189 5.89654 2.03663e-18)
(18.7141 5.9617 -1.04874e-18)
(18.2736 6.02447 -5.21907e-18)
(17.7924 6.08356 -1.26707e-19)
(17.2645 6.13728 -3.58155e-18)
(16.6826 6.18325 9.29596e-19)
(16.0378 6.21823 2.37705e-18)
(15.3189 6.23763 9.87096e-18)
(14.5122 6.2349 -1.73873e-18)
(13.6 6.20048 -1.02809e-17)
(12.5599 6.12032 -5.05736e-18)
(11.3634 5.97249 6.43518e-18)
(9.97196 5.72467 1.70449e-17)
(8.34054 5.31781 -1.19006e-17)
(6.4068 4.67999 1.93772e-17)
(4.08481 3.63559 -2.08267e-18)
(1.40908 2.11314 1.03355e-16)
(25.718 3.58421 4.89857e-18)
(25.7008 3.57931 3.45432e-18)
(25.6976 3.59158 3.5164e-18)
(25.6875 3.59661 0)
(25.6732 3.59945 0)
(25.6587 3.60452 0)
(25.6436 3.61088 5.21174e-18)
(25.6273 3.61764 -2.6544e-18)
(25.6098 3.62492 3.02087e-18)
(25.5915 3.63288 -3.43816e-18)
(25.5723 3.64148 3.6227e-18)
(25.5523 3.6507 4.14241e-18)
(25.5314 3.66053 -4.36508e-18)
(25.5096 3.671 0)
(25.487 3.68211 2.62395e-18)
(25.4635 3.69387 -5.83056e-21)
(25.4391 3.7063 -3.18432e-18)
(25.4137 3.71941 -3.49965e-18)
(25.3874 3.73322 3.98544e-18)
(25.3601 3.74774 1.5344e-19)
(25.3318 3.76301 2.42162e-18)
(25.3023 3.77904 9.77815e-20)
(25.2717 3.79585 2.91618e-18)
(25.24 3.81347 -3.09423e-18)
(25.207 3.83192 -7.07592e-18)
(25.1727 3.85124 3.60158e-18)
(25.1371 3.87144 4.2935e-18)
(25.1 3.89256 -6.70176e-18)
(25.0615 3.91461 -2.49213e-18)
(25.0214 3.93763 2.84851e-18)
(24.9796 3.96164 -3.02411e-18)
(24.9362 3.98666 1.3838e-19)
(24.8909 4.01273 -3.65938e-18)
(24.8438 4.03987 -8.21916e-18)
(24.7947 4.0681 2.30294e-18)
(24.7435 4.09745 -1.23608e-20)
(24.6902 4.12795 -1.15864e-19)
(24.6345 4.15962 9.01096e-18)
(24.5765 4.19248 3.40654e-18)
(24.5159 4.22656 2.01197e-18)
(24.4526 4.26188 -1.98322e-18)
(24.3865 4.29847 0)
(24.3175 4.33634 2.51423e-18)
(24.2453 4.37553 9.82831e-20)
(24.1698 4.41605 2.94124e-18)
(24.0909 4.45792 3.37547e-18)
(24.0082 4.50118 -3.45332e-18)
(23.9216 4.54584 0)
(23.8309 4.59192 -1.55491e-20)
(23.7358 4.63945 -1.04494e-19)
(23.636 4.68845 -2.87213e-18)
(23.5312 4.73894 6.01463e-18)
(23.4211 4.79095 1.5393e-20)
(23.3054 4.84449 -3.62421e-18)
(23.1836 4.8996 -1.93075e-18)
(23.0554 4.95628 -4.44216e-18)
(22.9203 5.01458 2.47189e-18)
(22.7777 5.07449 -2.68863e-20)
(22.6272 5.13606 6.08435e-18)
(22.4682 5.19928 -1.76283e-18)
(22.2999 5.26418 5.76317e-18)
(22.1216 5.33078 0)
(21.9326 5.39906 0)
(21.7318 5.46904 0)
(21.5182 5.54068 -2.94621e-18)
(21.2907 5.61396 0)
(21.048 5.68884 -3.79965e-18)
(20.7885 5.76524 4.17467e-18)
(20.5105 5.84305 -1.22156e-18)
(20.212 5.92211 -1.40507e-18)
(19.8908 6.00222 -1.56479e-18)
(19.5442 6.08308 3.3403e-18)
(19.1691 6.16427 1.92903e-18)
(18.7619 6.24521 4.47232e-18)
(18.3182 6.32514 0)
(17.8329 6.403 -3.0268e-18)
(17.2996 6.47727 -1.79314e-18)
(16.7108 6.54589 1.98654e-18)
(16.0571 6.60591 -1.23828e-18)
(15.3266 6.65309 -4.3751e-18)
(14.5046 6.68134 0)
(13.5724 6.68155 1.21755e-19)
(12.5054 6.64008 3.96009e-18)
(11.2725 6.53551 -1.02157e-17)
(9.83006 6.33503 -1.26252e-17)
(8.12729 5.98035 -1.32085e-17)
(6.08276 5.39717 2.40461e-17)
(3.59401 4.40291 -4.71399e-17)
(0.785567 2.79333 -3.56831e-17)
(25.7214 3.5923 2.94798e-18)
(25.7042 3.58898 -1.01595e-17)
(25.7003 3.60047 -3.51375e-18)
(25.6906 3.60635 0)
(25.6768 3.61026 0)
(25.6626 3.61602 -4.47595e-18)
(25.6479 3.62303 -9.93673e-18)
(25.632 3.63052 5.32713e-18)
(25.6151 3.63854 -3.01881e-18)
(25.5973 3.64725 0)
(25.5787 3.65663 3.50619e-18)
(25.5593 3.66665 0)
(25.539 3.67731 0)
(25.5179 3.68864 0)
(25.496 3.70064 -2.63684e-18)
(25.4732 3.71333 5.68636e-18)
(25.4495 3.72672 3.18287e-18)
(25.425 3.74083 -1.15549e-20)
(25.3994 3.75568 7.55728e-18)
(25.3729 3.77129 -3.90582e-18)
(25.3454 3.78769 2.33188e-18)
(25.3168 3.80489 -7.48135e-18)
(25.2872 3.82292 -1.16734e-19)
(25.2563 3.8418 6.06774e-18)
(25.2242 3.86158 -3.41404e-18)
(25.1909 3.88226 -7.50107e-18)
(25.1562 3.90389 1.20572e-17)
(25.1202 3.92648 1.75062e-19)
(25.0826 3.95007 2.50379e-18)
(25.0436 3.97468 -5.28291e-18)
(25.0029 4.00035 3.02476e-18)
(24.9605 4.0271 3.33006e-18)
(24.9164 4.05497 0)
(24.8703 4.08398 6.06378e-18)
(24.8224 4.11416 -6.41668e-18)
(24.7723 4.14553 -2.3566e-18)
(24.7201 4.17814 2.70789e-18)
(24.6657 4.21201 -2.84929e-18)
(24.6088 4.24717 -3.15234e-18)
(24.5494 4.28364 -3.47766e-18)
(24.4874 4.32146 1.99865e-18)
(24.4225 4.36065 -2.11266e-18)
(24.3547 4.40124 -9.80888e-20)
(24.2837 4.44327 2.57135e-18)
(24.2095 4.48677 -5.78996e-18)
(24.1318 4.53176 3.13906e-18)
(24.0504 4.57827 3.59257e-18)
(23.965 4.62634 5.82692e-18)
(23.8756 4.67601 -4.23082e-18)
(23.7817 4.72729 2.43851e-18)
(23.6831 4.78023 -5.17659e-18)
(23.5796 4.83485 2.86986e-18)
(23.4708 4.89121 -3.28559e-18)
(23.3563 4.94932 5.47332e-18)
(23.2357 5.00923 5.70114e-20)
(23.1087 5.07098 -2.68541e-20)