/*--------------------------------*- C++ -*----------------------------------*\
  =========                 |
  \\      /  F ield         | OpenFOAM: The Open Source CFD Toolbox
   \\    /   O peration     | Website:  https://openfoam.org
    \\  /    A nd           | Version:  11
     \\/     M anipulation  |
\*---------------------------------------------------------------------------*/
FoamFile
{
    format      ascii;
    class       volVectorField;
    location    "100";
    object      U;
}
// * * * * * * * * * * * * * * * * * * * * * * * * * * * * * * * * * * * * * //

dimensions      [0 1 -1 0 0 0 0];

internalField   nonuniform List<vector> 
31595
(
(7.34055 -0.0250601 -4.08835e-20)
(7.35452 -0.0172614 2.69323e-20)
(7.34715 -0.0174177 7.70643e-20)
(7.35005 -0.0178479 8.60322e-20)
(7.34712 -0.0176769 0)
(7.34711 -0.0174829 0)
(7.34491 -0.0174206 0)
(7.34388 -0.017218 7.4805e-20)
(7.34196 -0.0170168 3.43377e-21)
(7.34044 -0.0167576 0)
(7.33858 -0.0164802 0)
(7.33685 -0.0161622 5.76448e-20)
(7.33497 -0.0158228 -6.06895e-20)
(7.33313 -0.0154543 7.04098e-20)
(7.33123 -0.0150659 -7.41285e-20)
(7.32934 -0.0146569 8.29334e-20)
(7.32742 -0.0142331 0)
(7.32551 -0.0137964 -1.02578e-19)
(7.32358 -0.0133517 2.17421e-19)
(7.32167 -0.0129026 -6.12885e-20)
(7.31976 -0.012454 6.45228e-20)
(7.31786 -0.0120112 0)
(7.31599 -0.0115812 0)
(7.31414 -0.0111717 8.59344e-20)
(7.31233 -0.0107916 -4.38849e-20)
(7.31055 -0.0104509 1.38813e-21)
(7.30882 -0.0101606 -1.06284e-19)
(7.30714 -0.00993333 -5.88371e-20)
(7.30553 -0.00978275 1.25343e-19)
(7.30397 -0.00972447 -1.34204e-19)
(7.30249 -0.00977566 0)
(7.30108 -0.00995618 -3.90333e-20)
(7.29976 -0.0102876 4.2164e-20)
(7.29852 -0.0107945 -4.43903e-20)
(7.29738 -0.0115032 4.77078e-20)
(7.29633 -0.012443 -5.14457e-20)
(7.29538 -0.0136454 2.62882e-20)
(7.29452 -0.0151448 8.74003e-20)
(7.29377 -0.0169769 0)
(7.2931 -0.0191808 -3.29299e-20)
(7.29253 -0.021797 6.89425e-20)
(7.29204 -0.0248676 0)
(7.29161 -0.0284368 0)
(7.29126 -0.0325526 -2.1307e-20)
(7.29095 -0.0372634 8.87802e-20)
(7.29066 -0.0426196 0)
(7.29039 -0.0486733 -2.45955e-20)
(7.2901 -0.055478 5.08465e-20)
(7.28977 -0.0630892 -2.75975e-20)
(7.28939 -0.0715653 2.77555e-20)
(7.28892 -0.0809696 -7.9873e-20)
(7.28834 -0.091364 1.34458e-20)
(7.2876 -0.102814 -5.487e-20)
(7.28669 -0.115387 7.73351e-20)
(7.28555 -0.129157 -1.82247e-20)
(7.28417 -0.144202 -4.10655e-20)
(7.2825 -0.160605 -2.3349e-20)
(7.28049 -0.178456 -1.62733e-20)
(7.27812 -0.197851 -2.86926e-20)
(7.27533 -0.218894 4.6411e-20)
(7.27209 -0.241701 -1.85658e-21)
(7.26833 -0.266395 1.9224e-20)
(7.26402 -0.293109 -3.20835e-21)
(7.25911 -0.321997 -8.47064e-21)
(7.25354 -0.35323 1.48411e-20)
(7.24725 -0.386991 -5.39899e-20)
(7.2402 -0.423488 -1.76637e-20)
(7.23231 -0.46296 1.39097e-20)
(7.22354 -0.50568 5.68734e-20)
(7.21381 -0.551952 3.82455e-21)
(7.20307 -0.602124 -3.10545e-20)
(7.19125 -0.656596 6.26818e-22)
(7.1783 -0.715854 2.87158e-20)
(7.16417 -0.780393 0)
(7.14881 -0.850988 3.70726e-20)
(7.13218 -0.928077 0)
(7.11433 -1.01333 1.75234e-20)
(7.09521 -1.10606 0)
(7.07498 -1.21155 0)
(7.05407 -1.32277 0)
(7.03157 -1.46006 3.07605e-20)
(7.01246 -1.58816 1.18827e-20)
(6.98486 -1.78542 -1.70494e-20)
(6.98429 -1.91207 -1.48205e-20)
(6.93118 -2.23701 5.45409e-21)
(7.01557 -2.30994 -1.08886e-22)
(6.85092 -2.89249 6.23762e-22)
(7.33217 -2.89379 7.91117e-21)
(6.66133 -4.00349 -8.74854e-21)
(7.34822 -0.0217596 1.53095e-19)
(7.35055 -0.0167843 7.25168e-20)
(7.34994 -0.0154383 6.06139e-20)
(7.34898 -0.0162626 -2.4983e-19)
(7.34797 -0.0160407 0)
(7.34682 -0.0158512 0)
(7.34538 -0.0157394 1.22313e-19)
(7.3439 -0.015573 0)
(7.3423 -0.0153501 0)
(7.34064 -0.0151007 -1.71846e-19)
(7.33892 -0.0148145 -2.90118e-19)
(7.33715 -0.014498 2.10209e-19)
(7.33535 -0.0141525 1.1752e-19)
(7.33351 -0.0137822 2.63649e-19)
(7.33165 -0.0133892 -1.40895e-19)
(7.32977 -0.0129776 -7.97237e-20)
(7.32788 -0.0125508 8.89795e-20)
(7.32597 -0.0121132 -2.8361e-19)
(7.32406 -0.0116692 1.50527e-21)
(7.32216 -0.0112236 -2.26141e-19)
(7.32025 -0.0107819 0)
(7.31835 -0.0103498 0)
(7.31647 -0.00993437 0)
(7.3146 -0.00954344 0)
(7.31276 -0.00918583 1.74519e-19)
(7.31095 -0.00887156 0)
(7.30916 -0.00861195 2.05812e-19)
(7.30742 -0.00841965 0)
(7.30572 -0.00830869 1.2008e-19)
(7.30406 -0.00829472 6.49301e-20)
(7.30246 -0.00839512 -7.0706e-20)
(7.30092 -0.00862939 7.35434e-20)
(7.29943 -0.00901877 8.00774e-20)
(7.29802 -0.00958697 -8.76712e-20)
(7.29667 -0.0103596 9.231e-20)
(7.29539 -0.0113649 -5.03033e-20)
(7.29418 -0.0126328 1.05907e-19)
(7.29304 -0.0141962 -5.65046e-20)
(7.29197 -0.0160893 0)
(7.29095 -0.0183489 0)
(7.28999 -0.0210136 -1.40367e-19)
(7.28907 -0.024124 -1.80528e-21)
(7.28819 -0.0277227 0)
(7.28733 -0.0318541 8.60118e-20)
(7.28648 -0.036565 -9.04092e-20)
(7.28562 -0.0419039 -4.74217e-20)
(7.28472 -0.0479207 0)
(7.28378 -0.0546683 0)
(7.28275 -0.0622009 0)
(7.28163 -0.0705754 2.95787e-20)
(7.28037 -0.0798517 3.15416e-20)
(7.27896 -0.0900917 3.36889e-20)
(7.27735 -0.101359 3.60503e-20)
(7.27551 -0.113723 -3.86589e-20)
(7.27342 -0.127256 2.46228e-20)
(7.27102 -0.142034 -6.50539e-22)
(7.26829 -0.158142 5.21188e-20)
(7.26517 -0.175668 -3.04622e-20)
(7.26163 -0.194709 2.57042e-20)
(7.25762 -0.215369 -3.30009e-20)
(7.25309 -0.237763 -1.74241e-20)
(7.24799 -0.262017 -6.39754e-20)
(7.24226 -0.288264 2.04846e-20)
(7.23586 -0.316662 -2.53947e-20)
(7.22873 -0.347378 1.84143e-21)
(7.22079 -0.380604 9.20715e-20)
(7.21199 -0.41655 -3.70717e-20)
(7.20227 -0.455457 7.5454e-20)
(7.19155 -0.497603 -5.73499e-20)
(7.17975 -0.543303 2.83841e-20)
(7.16682 -0.592909 -2.68853e-20)
(7.15266 -0.646837 2.84257e-20)
(7.13721 -0.705584 -4.61174e-20)
(7.1204 -0.769675 3.88882e-20)
(7.10217 -0.839874 -1.66737e-20)
(7.08246 -0.916731 0)
(7.06124 -1.00177 5.47295e-20)
(7.03855 -1.09477 6.05008e-20)
(7.01436 -1.20025 6.62784e-20)
(6.98921 -1.31292 1.63005e-20)
(6.96215 -1.4501 -6.50453e-20)
(6.93764 -1.58253 -2.33559e-20)
(6.90566 -1.77861 -4.1326e-20)
(6.89658 -1.91537 5.274e-20)
(6.84217 -2.23837 1.56951e-20)
(6.91133 -2.3276 -2.80093e-20)
(6.75165 -2.91292 7.07238e-21)
(7.18275 -2.91691 3.91894e-21)
(6.54569 -4.06282 -5.13391e-20)
(7.34936 -0.0182779 -1.20992e-19)
(7.35058 -0.0153695 -1.18977e-19)
(7.35031 -0.0137899 1.43752e-19)
(7.3492 -0.0145306 9.91818e-21)
(7.34814 -0.0144747 -1.90883e-19)
(7.34698 -0.0142646 2.00968e-19)
(7.34557 -0.0141455 2.37793e-19)
(7.3441 -0.0139834 -1.28065e-19)
(7.34253 -0.0137593 0)
(7.3409 -0.0135022 1.65811e-19)
(7.3392 -0.0132096 1.84556e-19)
(7.33746 -0.0128845 -1.02411e-19)
(7.33567 -0.0125297 -1.13402e-19)
(7.33385 -0.0121493 -1.29101e-19)
(7.33201 -0.011746 1.34341e-19)
(7.33014 -0.0113237 0)
(7.32825 -0.0108865 1.69706e-19)
(7.32636 -0.0104393 1.85773e-19)
(7.32445 -0.00998705 0)
(7.32254 -0.00953494 -1.07336e-19)
(7.32062 -0.00908892 0)
(7.31871 -0.00865537 -1.29521e-19)
(7.31681 -0.00824153 0)
(7.31491 -0.0078554 3.10743e-19)
(7.31303 -0.00750616 -3.30494e-19)
(7.31117 -0.00720384 -3.61233e-19)
(7.30933 -0.00695986 -1.99416e-19)
(7.30751 -0.0067868 1.05611e-19)
(7.30573 -0.00669871 -1.16008e-19)
(7.30397 -0.00671107 0)
(7.30226 -0.00684116 0)
(7.30058 -0.00710779 -7.3778e-20)
(7.29894 -0.00753173 1.55736e-19)
(7.29734 -0.00813597 8.36639e-20)
(7.29579 -0.00894517 0)
(7.29428 -0.00998662 0)
(7.29282 -0.0112893 -1.05951e-19)
(7.29139 -0.0128843 1.11591e-19)
(7.29 -0.0148047 -6.09318e-20)
(7.28864 -0.0170855 2.60654e-19)
(7.28729 -0.0197638 1.39878e-19)
(7.28596 -0.0228783 -7.24144e-22)
(7.28463 -0.0264701 -8.11894e-20)
(7.28328 -0.030582 3.87562e-21)
(7.2819 -0.0352585 8.90432e-20)
(7.28047 -0.0405465 -1.00698e-19)
(7.27897 -0.0464946 5.30735e-20)
(7.27738 -0.053154 2.40483e-21)
(7.27567 -0.0605779 0)
(7.27382 -0.0688219 -6.78823e-20)
(7.2718 -0.0779443 -7.33909e-20)
(7.26957 -0.0880061 7.94795e-20)
(7.2671 -0.0990709 -4.44995e-20)
(7.26436 -0.111206 -8.92885e-20)
(7.26132 -0.124484 1.97859e-21)
(7.25792 -0.138982 5.36986e-20)
(7.25414 -0.154783 -5.66387e-20)
(7.24992 -0.171976 -3.21335e-20)
(7.24522 -0.190657 1.04385e-19)
(7.23999 -0.210931 3.38162e-20)
(7.23418 -0.232915 4.09783e-20)
(7.22773 -0.256732 4.29194e-20)
(7.22059 -0.282522 -5.47395e-20)
(7.2127 -0.310439 0)
(7.20399 -0.340655 0)
(7.19439 -0.373364 -1.43722e-19)
(7.18383 -0.408782 -4.59277e-20)
(7.17224 -0.447152 0)
(7.15954 -0.488756 0)
(7.14564 -0.533914 -5.01596e-20)
(7.13046 -0.582991 0)
(7.11391 -0.636418 -1.08643e-19)
(7.09588 -0.694693 3.71391e-20)
(7.07631 -0.75837 4.68204e-21)
(7.05509 -0.828219 -1.22374e-19)
(7.03215 -0.904873 2.59013e-20)
(7.00742 -0.989766 -8.77786e-20)
(6.98092 -1.08301 -9.17546e-20)
(6.95255 -1.18859 -6.55318e-20)
(6.92285 -1.30255 8.6383e-20)
(6.89081 -1.43991 -9.32523e-20)
(6.86061 -1.57608 4.14681e-20)
(6.82321 -1.77173 4.10975e-20)
(6.80586 -1.91764 -1.11424e-19)
(6.74803 -2.23874 1.16589e-20)
(6.80261 -2.34474 1.56855e-20)
(6.64631 -2.93275 3.54112e-21)
(7.03944 -2.94071 2.59964e-20)
(6.47191 -4.131 7.92181e-20)
(7.3502 -0.0153128 -1.14089e-19)
(7.35057 -0.0137198 -1.22952e-19)
(7.35056 -0.0121953 -1.30246e-19)
(7.34939 -0.01284 1.6222e-19)
(7.34831 -0.0129147 6.74256e-21)
(7.34714 -0.0127156 0)
(7.34578 -0.0125878 6.99047e-21)
(7.34431 -0.0124267 -1.24363e-19)
(7.34277 -0.0122014 1.37894e-19)
(7.34116 -0.0119351 0)
(7.33949 -0.0116335 1.80659e-19)
(7.33777 -0.0112974 -1.90217e-19)
(7.33601 -0.010931 -2.21252e-19)
(7.33421 -0.0105379 1.13059e-19)
(7.33238 -0.0101218 0)
(7.33053 -0.00968644 0)
(7.32866 -0.0092364 -1.57931e-19)
(7.32677 -0.0087767 -1.75491e-19)
(7.32486 -0.00831269 1.9e-19)
(7.32295 -0.00785014 4.23781e-19)
(7.32102 -0.00739527 2.77547e-21)
(7.3191 -0.00695478 -2.5007e-19)
(7.31717 -0.00653614 -4.69852e-21)
(7.31524 -0.00614766 -3.0436e-21)
(7.31332 -0.00579851 1.2726e-21)
(7.31141 -0.00549892 1.76084e-19)
(7.30951 -0.00526016 0)
(7.30762 -0.00509487 1.04925e-19)
(7.30575 -0.00501699 -2.24155e-19)
(7.30389 -0.00504194 -1.24565e-19)
(7.30206 -0.00518647 -3.46778e-21)
(7.30024 -0.00546903 -1.96521e-21)
(7.29845 -0.00590992 -1.52795e-19)
(7.29667 -0.00653117 0)
(7.29492 -0.00735668 0)
(7.29319 -0.00841252 -9.72204e-20)
(7.29147 -0.00972651 -1.93061e-21)
(7.28977 -0.0113284 0)
(7.28807 -0.01325 0)
(7.28637 -0.0155249 -1.27415e-19)
(7.28465 -0.0181882 -6.84172e-20)
(7.28292 -0.0212775 1.52047e-19)
(7.28115 -0.0248318 1.60274e-19)
(7.27932 -0.0288924 -8.20226e-20)
(7.27743 -0.0335022 1.89936e-19)
(7.27546 -0.0387065 -1.57374e-21)
(7.27337 -0.0445522 0)
(7.27116 -0.0510891 -5.67529e-20)
(7.26879 -0.0583689 1.30905e-19)
(7.26623 -0.0664457 1.3569e-19)
(7.26346 -0.0753764 -7.91162e-20)
(7.26044 -0.0852212 -7.74198e-20)
(7.25714 -0.0960428 8.40225e-20)
(7.25352 -0.107908 0)
(7.24955 -0.120889 -1.09615e-19)
(7.24517 -0.135061 0)
(7.24036 -0.150507 0)
(7.23506 -0.167317 0)
(7.22922 -0.185585 -7.1749e-20)
(7.2228 -0.205417 4.29978e-20)
(7.21573 -0.226929 5.28314e-20)
(7.20796 -0.250246 0)
(7.19942 -0.275508 -8.93038e-21)
(7.19005 -0.302871 5.45036e-21)
(7.17977 -0.332508 0)
(7.16852 -0.364614 3.31872e-20)
(7.15622 -0.399405 3.14906e-20)
(7.14277 -0.437134 -1.05018e-19)
(7.12809 -0.478083 0)
(7.11208 -0.522579 0)
(7.09463 -0.570996 0)
(7.07565 -0.62377 3.23602e-20)
(7.05502 -0.681412 4.24134e-20)
(7.03263 -0.744507 0)
(7.00835 -0.813816 -5.41681e-21)
(6.9821 -0.890046 1.90704e-19)
(6.95375 -0.974571 2.82899e-20)
(6.9233 -1.06778 7.60297e-20)
(6.89055 -1.17323 -1.53363e-19)
(6.85606 -1.28812 1.38696e-20)
(6.81868 -1.42542 8.25119e-21)
(6.78249 -1.56495 -2.72527e-20)
(6.73885 -1.75987 2.88853e-20)
(6.71313 -1.9146 1.24345e-19)
(6.64993 -2.23363 0)
(6.68993 -2.35675 7.39033e-20)
(6.53627 -2.94778 2.83603e-20)
(6.88691 -2.9603 -1.95959e-20)
(6.40222 -4.19936 -3.45288e-20)
(7.35046 -0.0128146 2.14847e-19)
(7.3506 -0.0121125 0)
(7.35067 -0.0106823 1.2657e-19)
(7.34958 -0.0112366 3.08003e-19)
(7.34846 -0.0113944 -1.59792e-19)
(7.3473 -0.0112214 -1.87888e-19)
(7.34597 -0.0110816 4.42725e-19)
(7.34452 -0.0109178 -4.82988e-19)
(7.343 -0.0106871 0)
(7.34142 -0.0104095 1.56387e-19)
(7.33978 -0.0100947 -1.64661e-19)
(7.33808 -0.00974432 0)
(7.33634 -0.00936234 0)
(7.33457 -0.00895314 0)
(7.33275 -0.00852043 2.50443e-19)
(7.33092 -0.00806828 0)
(7.32905 -0.00760132 1.53531e-19)
(7.32717 -0.0071248 -1.71011e-19)
(7.32526 -0.00664432 -4.63489e-21)
(7.32335 -0.00616595 -1.99806e-19)
(7.32141 -0.00569621 -2.26702e-19)
(7.31947 -0.00524211 4.77606e-19)
(7.31752 -0.00481124 0)
(7.31556 -0.00441201 2.84647e-19)
(7.3136 -0.00405373 3.11498e-19)
(7.31164 -0.00374656 -3.44328e-21)
(7.30967 -0.00350177 1.81517e-19)
(7.30771 -0.00333184 0)
(7.30575 -0.00325056 0)
(7.30379 -0.00327303 2.37648e-19)
(7.30183 -0.00341567 -1.24213e-19)
(7.29988 -0.00369663 -1.36972e-19)
(7.29793 -0.00413531 1.5021e-19)
(7.29598 -0.00475315 1.62697e-19)
(7.29403 -0.0055732 -1.77662e-19)
(7.29208 -0.00662041 2.83161e-19)
(7.29012 -0.00792145 4.43779e-22)
(7.28814 -0.00950491 0)
(7.28614 -0.0114011 -1.2073e-19)
(7.2841 -0.0136423 0)
(7.28203 -0.0162623 1.41344e-19)
(7.2799 -0.0192969 -3.01121e-19)
(7.2777 -0.0227837 -8.24843e-20)
(7.27542 -0.0267624 7.0689e-22)
(7.27304 -0.0312741 -1.89678e-19)
(7.27053 -0.0363629 2.06432e-19)
(7.26788 -0.0420741 3.18536e-21)
(7.26505 -0.0484559 -1.19629e-19)
(7.26204 -0.0555583 7.50448e-20)
(7.2588 -0.0634345 -7.06183e-20)
(7.2553 -0.0721401 7.53404e-20)
(7.25151 -0.0817337 1.49558e-21)
(7.2474 -0.0922775 -3.40751e-21)
(7.24292 -0.103837 1.00216e-19)
(7.23805 -0.116484 1.07072e-19)
(7.23272 -0.130293 -6.28782e-20)
(7.2269 -0.145345 -2.93261e-21)
(7.22055 -0.161731 -3.36115e-21)
(7.21359 -0.179545 1.67344e-19)
(7.20599 -0.198891 -4.68974e-20)
(7.19768 -0.219886 7.90907e-21)
(7.1886 -0.242655 1.73529e-19)
(7.17868 -0.267338 1.18619e-19)
(7.16785 -0.294091 -2.13349e-19)
(7.15603 -0.323088 -8.03176e-20)
(7.14314 -0.354528 8.49519e-20)
(7.12909 -0.388629 9.20348e-20)
(7.11378 -0.425643 -1.24522e-20)
(7.09712 -0.465858 0)
(7.07898 -0.509604 -7.09257e-20)
(7.05926 -0.557263 1.14942e-19)
(7.03783 -0.609281 -4.2196e-20)
(7.01456 -0.666175 0)
(6.98931 -0.72855 -5.63734e-20)
(6.96192 -0.797176 5.98024e-20)
(6.93227 -0.872823 -1.29223e-19)
(6.9002 -0.956814 -1.63979e-19)
(6.86565 -1.04978 1.83523e-19)
(6.82836 -1.15491 1.91845e-19)
(6.78885 -1.2704 1.44909e-20)
(6.74585 -1.40751 1.08403e-19)
(6.70333 -1.54989 3.19544e-20)
(6.65288 -1.74408 -1.79955e-19)
(6.61848 -1.90699 -6.78309e-20)
(6.54859 -2.22391 0)
(6.574 -2.36403 -6.84533e-20)
(6.42088 -2.95992 -3.91903e-20)
(6.72201 -2.97815 6.38164e-20)
(6.29989 -4.2596 0)
(7.3507 -0.0107196 0)
(7.35061 -0.0105867 0)
(7.35076 -0.00927675 0)
(7.34973 -0.00973287 -1.46852e-19)
(7.3486 -0.00993698 -1.73561e-19)
(7.34746 -0.00978677 1.82745e-19)
(7.34616 -0.00963304 -1.51353e-21)
(7.34474 -0.00945898 -2.35301e-19)
(7.34325 -0.00921846 -2.62248e-19)
(7.34169 -0.00892592 0)
(7.34007 -0.00859381 -3.23378e-19)
(7.3384 -0.00822505 0)
(7.33668 -0.00782372 1.97941e-19)
(7.33493 -0.0073944 0)
(7.33313 -0.00694118 -2.44259e-19)
(7.33131 -0.00646819 2.7314e-19)
(7.32946 -0.00598019 3.91324e-21)
(7.32758 -0.00548242 0)
(7.32568 -0.00498069 1.75628e-19)
(7.32375 -0.00448128 -1.95213e-19)
(7.32181 -0.00399082 -5.12041e-21)
(7.31985 -0.00351653 -2.30509e-19)
(7.31788 -0.00306614 2.51925e-19)
(7.31589 -0.00264813 -5.52835e-19)
(7.31389 -0.00227185 -1.51374e-19)
(7.31187 -0.00194734 2.29525e-21)
(7.30984 -0.00168588 -1.76044e-19)
(7.30781 -0.00149963 0)
(7.30576 -0.00140219 2.15085e-19)
(7.3037 -0.00140816 -2.22676e-19)
(7.30162 -0.00153395 -1.2128e-19)
(7.29954 -0.00179672 2.71013e-19)
(7.29743 -0.00221571 -2.9593e-19)
(7.29531 -0.00281144 -1.63502e-19)
(7.29317 -0.00360596 -4.94086e-21)
(7.291 -0.00462322 3.733e-19)
(7.28879 -0.00588892 0)
(7.28655 -0.00743037 0)
(7.28425 -0.00927667 -3.01041e-21)
(7.2819 -0.0114587 -3.22998e-21)
(7.27947 -0.0140088 -1.38157e-19)
(7.27696 -0.0169614 -4.66541e-21)
(7.27435 -0.0203527 -8.8707e-20)
(7.27163 -0.0242208 1.79545e-19)
(7.26876 -0.0286054 9.58106e-20)
(7.26574 -0.0335489 0)
(7.26254 -0.039095 0)
(7.25913 -0.0452908 1.27621e-19)
(7.25549 -0.0521847 -2.67469e-19)
(7.25159 -0.0598283 0)
(7.24738 -0.0682763 -2.5192e-19)
(7.24285 -0.0775857 -8.99911e-20)
(7.23795 -0.087818 9.6454e-20)
(7.23264 -0.0990376 0)
(7.22689 -0.111315 1.23393e-19)
(7.22063 -0.124724 -6.71614e-20)
(7.21383 -0.139347 1.45161e-19)
(7.20644 -0.15527 -2.45418e-19)
(7.1984 -0.172588 7.70104e-21)
(7.18964 -0.191407 0)
(7.18012 -0.211841 -1.04669e-19)
(7.16975 -0.234014 -1.16464e-19)
(7.15847 -0.25807 7.01296e-20)
(7.14619 -0.284161 -7.68204e-21)
(7.13284 -0.312466 8.29002e-20)
(7.11832 -0.343179 -1.98131e-19)
(7.10254 -0.376524 4.88974e-20)
(7.08538 -0.412757 1.08134e-19)
(7.06674 -0.452163 -6.54741e-20)
(7.04648 -0.495079 0)
(7.02448 -0.541895 1.78815e-19)
(7.00058 -0.593059 2.01292e-19)
(6.97464 -0.649105 0)
(6.94648 -0.710653 -6.24962e-20)
(6.91593 -0.778477 -7.04513e-21)
(6.8828 -0.853399 -2.3635e-19)
(6.8469 -0.936719 1.18331e-19)
(6.80812 -1.02925 1.18592e-19)
(6.76612 -1.13394 -4.38169e-19)
(6.72134 -1.24979 -5.43507e-20)
(6.67243 -1.38666 -3.39416e-20)
(6.62314 -1.53145 -1.57493e-19)
(6.56536 -1.72512 1.45032e-19)
(6.52163 -1.89554 -1.6347e-19)
(6.44386 -2.21106 2.17196e-20)
(6.45394 -2.36762 0)
(6.29861 -2.96909 0)
(6.56537 -3.00614 2.39749e-20)
(6.14399 -4.29236 -1.94967e-21)
(7.35092 -0.00894519 0)
(7.35062 -0.00918119 0)
(7.35081 -0.00798861 0)
(7.34986 -0.00833981 1.22026e-20)
(7.34874 -0.00855567 -1.57431e-19)
(7.34762 -0.00841898 3.67567e-19)
(7.34635 -0.00824686 -4.05103e-19)
(7.34496 -0.00805506 6.94098e-19)
(7.34349 -0.00779867 8.10611e-21)
(7.34196 -0.00748666 0)
(7.34037 -0.0071327 3.16368e-19)
(7.33873 -0.00674117 1.78447e-19)
(7.33703 -0.00631614 -3.81589e-19)
(7.3353 -0.00586241 0)
(7.33352 -0.00538432 2.39482e-19)
(7.33171 -0.00488618 -2.52194e-19)
(7.32987 -0.00437263 4.28624e-21)
(7.328 -0.00384893 -3.04964e-19)
(7.3261 -0.00332089 2.45894e-21)
(7.32417 -0.0027949 4.7718e-21)
(7.32222 -0.00227769 -5.47221e-21)
(7.32025 -0.00177657 4.45856e-19)
(7.31825 -0.00129934 -2.71e-21)
(7.31622 -0.000854505 5.35926e-19)
(7.31418 -0.000451303 0)
(7.31212 -9.97146e-05 0)
(7.31003 0.000189147 0)
(7.30792 0.000403358 0)
(7.30578 0.000529705 -4.16339e-19)
(7.30362 0.000553842 4.46379e-19)
(7.30143 0.000459959 4.93459e-19)
(7.29921 0.000231231 -1.28636e-19)
(7.29696 -0.000150895 -2.92041e-19)
(7.29467 -0.000706006 1.54943e-19)
(7.29233 -0.00145551 0)
(7.28995 -0.0024223 -5.60245e-19)
(7.28751 -0.00363095 -2.09445e-19)
(7.28501 -0.00510761 -4.95896e-21)
(7.28243 -0.0068802 0)
(7.27976 -0.00897816 -2.86176e-21)
(7.277 -0.0114327 0)
(7.27412 -0.0142769 -1.56063e-19)
(7.27111 -0.0175453 3.28897e-19)
(7.26796 -0.0212746 -1.78817e-19)
(7.26463 -0.0255032 -1.01057e-19)
(7.26112 -0.0302718 -3.79535e-21)
(7.25738 -0.0356229 1.16361e-19)
(7.25341 -0.0416018 0)
(7.24916 -0.0482556 -1.45281e-19)
(7.24462 -0.0556345 0)
(7.23974 -0.063792 3.41072e-19)
(7.23448 -0.0727837 -9.59115e-20)
(7.22882 -0.0826697 1.01223e-19)
(7.2227 -0.0935133 1.16624e-19)
(7.21609 -0.105385 -2.45656e-19)
(7.20893 -0.118356 -1.36111e-19)
(7.20118 -0.132507 0)
(7.19278 -0.147926 1.64502e-19)
(7.18367 -0.164706 -9.1306e-20)
(7.17379 -0.18295 0)
(7.16307 -0.202773 -1.22533e-19)
(7.15144 -0.2243 0)
(7.13882 -0.247672 0)
(7.12512 -0.273043 -8.4728e-20)
(7.11026 -0.300589 1.84637e-19)
(7.09414 -0.330508 1.04777e-19)
(7.07664 -0.363022 6.81624e-21)
(7.05765 -0.398387 -2.26883e-21)
(7.03703 -0.436896 0)
(7.01466 -0.478886 0)
(6.99038 -0.524746 -2.75694e-19)
(6.96401 -0.574937 -1.93482e-19)
(6.93538 -0.629999 -3.61979e-19)
(6.9043 -0.690566 -6.87366e-20)
(6.87053 -0.757419 2.16057e-19)
(6.83388 -0.831422 1.61102e-19)
(6.79407 -0.913861 4.913e-20)
(6.75094 -1.00571 -2.56108e-19)
(6.70406 -1.10971 2.28425e-19)
(6.65379 -1.22553 0)
(6.59869 -1.3619 -1.58442e-19)
(6.54221 -1.50855 2.41566e-19)
(6.47656 -1.70149 -8.95659e-20)
(6.42277 -1.87867 1.86831e-19)
(6.3359 -2.19249 0)
(6.32967 -2.36546 0)
(6.16935 -2.96942 1.05745e-20)
(6.39983 -3.02339 1.15887e-20)
(6.0122 -4.33713 1.39058e-21)
(7.35115 -0.00743733 0)
(7.35067 -0.00789499 0)
(7.35087 -0.00681283 -2.48738e-19)
(7.34999 -0.00705756 5.76917e-19)
(7.34888 -0.00725702 -6.31739e-19)
(7.34777 -0.00712177 -3.57217e-19)
(7.34654 -0.00692592 -2.05675e-19)
(7.34518 -0.00670876 2.21885e-19)
(7.34374 -0.00642994 1.32219e-20)
(7.34224 -0.00609336 -5.49841e-19)
(7.34068 -0.00571279 -5.00211e-21)
(7.33906 -0.00529383 -3.33926e-19)
(7.33739 -0.0048406 -1.78332e-19)
(7.33568 -0.00435799 2.8593e-21)
(7.33392 -0.00385059 7.17292e-21)
(7.33213 -0.00332269 -4.98486e-19)
(7.3303 -0.00277888 5.39956e-19)
(7.32843 -0.00222439 8.95531e-21)
(7.32653 -0.00166493 -1.55164e-19)
(7.32461 -0.00110683 -5.37517e-19)
(7.32265 -0.000556859 -1.99926e-19)
(7.32065 -2.23505e-05 -2.16123e-19)
(7.31863 0.000488955 -2.39462e-19)
(7.31658 0.00096856 3.7269e-21)
(7.3145 0.0014074 -8.53067e-19)
(7.31238 0.00179555 4.64079e-19)
(7.31023 0.00212222 -3.36071e-19)
(7.30805 0.00237572 -3.96811e-21)
(7.30583 0.00254318 -6.19609e-21)
(7.30357 0.00261071 4.41211e-19)
(7.30127 0.00256298 -4.76775e-19)
(7.29892 0.00238371 -2.61688e-19)
(7.29652 0.00205505 5.73467e-19)
(7.29407 0.00155811 -1.52996e-19)
(7.29155 0.000872235 -3.42357e-19)
(7.28896 -2.43149e-05 3.65201e-19)
(7.2863 -0.00115515 1.99773e-19)
(7.28355 -0.00254523 2.17426e-19)
(7.28069 -0.00422127 -2.40906e-19)
(7.27773 -0.00621149 1.28877e-19)
(7.27464 -0.00854591 0)
(7.27141 -0.011256 9.38875e-22)
(7.26801 -0.0143751 -1.66585e-19)
(7.26444 -0.0179384 1.88078e-19)
(7.26067 -0.021983 1.03325e-19)
(7.25668 -0.0265479 -2.2216e-19)
(7.25244 -0.0316742 1.19393e-19)
(7.24792 -0.0374058 1.36302e-19)
(7.24309 -0.0437883 -1.50501e-19)
(7.23793 -0.0508706 1.58089e-19)
(7.23239 -0.0587042 -3.54995e-19)
(7.22644 -0.067344 1.00275e-19)
(7.22003 -0.0768487 -1.05857e-19)
(7.21313 -0.0872803 -1.22619e-19)
(7.20569 -0.0987073 3.93673e-19)
(7.19766 -0.1112 -2.94992e-19)
(7.18898 -0.12484 -8.37807e-20)
(7.1796 -0.13971 -9.88773e-20)
(7.16945 -0.155904 1.03885e-19)
(7.15847 -0.173525 -4.58832e-19)
(7.14659 -0.192686 2.43753e-19)
(7.13372 -0.213511 -1.44851e-19)
(7.1198 -0.236139 2.35356e-19)
(7.10471 -0.260724 2.6883e-19)
(7.08836 -0.287443 0)
(7.07066 -0.316489 0)
(7.05147 -0.348088 1.28991e-19)
(7.03066 -0.382496 -1.36753e-19)
(7.0081 -0.420005 1.64723e-19)
(6.98363 -0.460952 0)
(6.95708 -0.505734 -1.64453e-20)
(6.92825 -0.554812 -2.36848e-19)
(6.89694 -0.60873 -8.77974e-20)
(6.86291 -0.668135 7.05536e-20)
(6.82592 -0.733816 0)
(6.7857 -0.80667 2.89214e-19)
(6.74192 -0.88797 -1.019e-19)
(6.69435 -0.978819 6.09089e-20)
(6.64248 -1.0818 -1.33499e-19)
(6.58653 -1.19715 7.31254e-20)
(6.52501 -1.33263 1.59296e-19)
(6.46098 -1.48047 0)
(6.38698 -1.67222 0)
(6.32248 -1.85528 2.41362e-19)
(6.2254 -2.16655 -2.47108e-19)
(6.20187 -2.35585 0)
(6.03335 -2.95884 0)
(6.22989 -3.04075 -1.06748e-19)
(5.88715 -4.3873 -3.65691e-22)
(7.3514 -0.00615091 2.08597e-19)
(7.35074 -0.00672446 -1.98247e-21)
(7.35094 -0.0057426 -2.53401e-19)
(7.35012 -0.00588277 0)
(7.34903 -0.00604316 -3.2441e-19)
(7.34794 -0.00589667 6.93121e-19)
(7.34674 -0.0056713 -3.87325e-19)
(7.34541 -0.00542162 7.46538e-21)
(7.34401 -0.00511368 -2.34441e-19)
(7.34253 -0.00474716 0)
(7.341 -0.00433507 2.97152e-19)
(7.33941 -0.00388388 3.28626e-19)
(7.33776 -0.00339784 -1.78425e-19)
(7.33607 -0.00288179 1.84355e-19)
(7.33434 -0.00234044 4.34978e-19)
(7.33256 -0.00177805 -4.85646e-19)
(7.33074 -0.00119916 2.55349e-19)
(7.32888 -0.000608861 2.93915e-19)
(7.32699 -1.26975e-05 0)
(7.32506 0.000583074 7.02979e-19)
(7.32309 0.00117183 -3.88229e-19)
(7.32109 0.00174626 6.29981e-19)
(7.31904 0.00229884 0)
(7.31696 0.00282106 -2.58639e-19)
(7.31484 0.00330405 2.68329e-19)
(7.31268 0.00373814 2.98091e-19)
(7.31047 0.00411272 1.66559e-19)
(7.30822 0.00441653 -1.8191e-19)
(7.30592 0.00463689 1.9863e-19)
(7.30357 0.00476057 0)
(7.30116 0.00477282 2.36199e-19)
(7.29868 0.00465778 -4.87399e-21)
(7.29615 0.00439826 1.34209e-19)
(7.29353 0.00397628 -5.48179e-21)
(7.29084 0.00337206 5.0395e-19)
(7.28805 0.00256455 6.56182e-21)
(7.28517 0.00153137 7.20283e-21)
(7.28218 0.000248623 -4.35797e-19)
(7.27906 -0.00130922 2.37437e-19)
(7.27581 -0.00316913 -1.33471e-19)
(7.27241 -0.00535986 -5.3568e-21)
(7.26883 -0.0079115 3.08859e-19)
(7.26507 -0.0108562 -1.75282e-19)
(7.26111 -0.0142275 -1.9159e-19)
(7.25691 -0.0180613 -1.23768e-21)
(7.25245 -0.022395 5.69229e-19)
(7.24772 -0.0272683 -2.49819e-19)
(7.24268 -0.0327234 1.34533e-19)
(7.23729 -0.0388048 0)
(7.23153 -0.0455596 -1.70437e-19)
(7.22536 -0.0530378 3.6822e-19)
(7.21873 -0.061293 1.04413e-19)
(7.21162 -0.0703821 -2.25754e-19)
(7.20396 -0.0803662 -1.22145e-19)
(7.19572 -0.0913119 0)
(7.18684 -0.103289 1.49696e-19)
(7.17726 -0.116376 -1.26344e-22)
(7.16693 -0.130656 -1.17914e-21)
(7.15577 -0.146221 0)
(7.14372 -0.163171 4.76309e-19)
(7.13071 -0.181619 0)
(7.11664 -0.201687 1.54038e-19)
(7.10143 -0.223513 -1.61586e-19)
(7.08498 -0.24725 -1.81249e-19)
(7.06718 -0.273072 -1.09217e-19)
(7.04792 -0.301173 -1.153e-19)
(7.02706 -0.331778 0)
(7.00447 -0.365139 0)
(6.97999 -0.401549 -1.63486e-19)
(6.95344 -0.441347 -9.89247e-20)
(6.92463 -0.48493 8.91929e-20)
(6.89335 -0.532757 2.35405e-19)
(6.85936 -0.585383 4.09138e-19)
(6.8224 -0.643454 -1.52084e-19)
(6.78217 -0.707771 1.84102e-19)
(6.73835 -0.779252 1.57883e-20)
(6.69056 -0.859163 2.3646e-19)
(6.63848 -0.948711 0)
(6.58154 -1.05035 0)
(6.51976 -1.16481 -3.42971e-19)
(6.45162 -1.29902 9.4883e-20)
(6.37976 -1.44739 6.32459e-20)
(6.29701 -1.63755 5.63367e-20)
(6.22129 -1.82557 -1.79383e-19)
(6.1131 -2.13373 -9.94525e-20)
(6.07151 -2.3387 2.82985e-19)
(5.89219 -2.93913 -2.14383e-19)
(6.05221 -3.05532 -1.69241e-20)
(5.71798 -4.42133 -2.71863e-20)
(7.35166 -0.00505163 1.55767e-19)
(7.35086 -0.00566244 0)
(7.35102 -0.00476854 2.44179e-19)
(7.35026 -0.00480851 0)
(7.34919 -0.00491297 3.1815e-19)
(7.34812 -0.00474324 -3.3501e-19)
(7.34695 -0.00448265 1.8681e-19)
(7.34566 -0.00419402 4.25416e-19)
(7.34428 -0.00385051 -4.68384e-19)
(7.34284 -0.00344871 -1.27924e-20)
(7.34133 -0.00300026 2.79748e-19)
(7.33977 -0.00251218 0)
(7.33815 -0.00198874 3.52319e-19)
(7.33649 -0.00143465 -3.88658e-19)
(7.33477 -0.000854669 -4.27584e-19)
(7.33301 -0.000253105 2.25519e-19)
(7.33121 0.000365737 -7.60205e-21)
(7.32936 0.000996896 0)
(7.32747 0.00163505 -3.08283e-19)
(7.32554 0.00227414 -6.83072e-19)
(7.32357 0.00290762 1.88921e-19)
(7.32155 0.00352847 -4.11342e-19)
(7.31949 0.00412924 -2.23959e-19)
(7.31738 0.00470167 0)
(7.31522 0.00523717 2.69289e-19)
(7.31301 0.00572613 2.95146e-19)
(7.31075 0.00615841 0)
(7.30844 0.00652294 0)
(7.30606 0.00680772 0)
(7.30361 0.00699978 4.7682e-21)
(7.3011 0.00708507 -2.24534e-19)
(7.29851 0.00704823 -5.05519e-19)
(7.29584 0.006873 -2.78783e-19)
(7.29307 0.00654187 3.0566e-19)
(7.29021 0.00603599 -1.67438e-19)
(7.28724 0.0053354 -1.8347e-19)
(7.28415 0.00441855 2.04269e-19)
(7.28092 0.00326271 5.86834e-21)
(7.27755 0.00184343 -2.35897e-19)
(7.27403 0.000134989 -3.99975e-19)
(7.27032 -0.00189006 1.41781e-19)
(7.26642 -0.00426059 0)
(7.26231 -0.00700738 -1.78021e-19)
(7.25796 -0.0101626 1.82723e-19)
(7.25336 -0.0137606 -2.07558e-19)
(7.24847 -0.0178374 -2.2828e-19)
(7.24326 -0.0224315 -2.59883e-19)
(7.23771 -0.0275832 0)
(7.23179 -0.0333357 -1.58726e-19)
(7.22546 -0.0397346 1.68765e-19)
(7.21868 -0.0468285 8.0874e-21)
(7.21141 -0.0546692 0)
(7.2036 -0.0633123 1.08585e-19)
(7.19522 -0.0728171 2.61154e-19)
(7.1862 -0.0832492 -2.90504e-19)
(7.1765 -0.0946761 1.57485e-19)
(7.16606 -0.107174 3.60318e-19)
(7.1548 -0.120827 -4.02097e-19)
(7.14267 -0.135723 0)
(7.12958 -0.151963 -2.43917e-19)
(7.11546 -0.169655 -2.89403e-19)
(7.10022 -0.188921 -1.53014e-19)
(7.08376 -0.209896 -1.82702e-19)
(7.06597 -0.232733 9.08504e-20)
(7.04675 -0.257603 3.25642e-19)
(7.02597 -0.2847 -1.30156e-19)
(7.00348 -0.314244 4.30994e-19)
(6.97912 -0.346487 -1.65589e-19)
(6.95274 -0.381722 2.69305e-19)
(6.92414 -0.420287 1.11824e-19)
(6.8931 -0.462576 2.23656e-19)
(6.85939 -0.509052 0)
(6.82273 -0.560269 1.53467e-19)
(6.78283 -0.616876 -7.63825e-20)
(6.73935 -0.679683 -3.75538e-19)
(6.69192 -0.749624 8.62885e-21)
(6.64008 -0.827963 -2.44596e-19)
(6.58343 -0.915989 6.35627e-20)
(6.5213 -1.01607 1.58672e-19)
(6.45354 -1.12931 6.30601e-19)
(6.37857 -1.26201 -1.04324e-19)
(6.29853 -1.41039 -5.84851e-19)
(6.20659 -1.59883 -2.66128e-19)
(6.11887 -1.79089 2.99421e-19)
(5.99865 -2.09621 6.01991e-19)
(5.93749 -2.3155 -3.20318e-19)
(5.74545 -2.91461 2.88117e-19)
(5.86897 -3.05818 -2.02779e-20)
(5.51014 -4.43699 8.44023e-20)
(7.35193 -0.00411253 3.17608e-19)
(7.35101 -0.00470165 2.41767e-19)
(7.35113 -0.00388182 2.44685e-19)
(7.35042 -0.00382717 0)
(7.34937 -0.00386351 0)
(7.34832 -0.00365973 0)
(7.34718 -0.0033585 3.8166e-19)
(7.34592 -0.00302539 -1.94586e-19)
(7.34457 -0.00264038 2.25819e-19)
(7.34316 -0.00219821 -2.58328e-19)
(7.34168 -0.00170878 2.72046e-19)
(7.34015 -0.00117924 3.14935e-19)
(7.33856 -0.000613947 -3.31666e-19)
(7.33692 -1.7419e-05 0)
(7.33522 0.000605708 2.01096e-19)
(7.33348 0.00125117 -2.47813e-21)
(7.33169 0.00191478 -2.47442e-19)
(7.32986 0.00259182 -2.72333e-19)
(7.32798 0.00327717 3.05188e-19)
(7.32605 0.0039651 5.9549e-21)
(7.32407 0.00464925 1.86632e-19)
(7.32205 0.00532287 5.51555e-21)
(7.31997 0.00597861 2.2176e-19)
(7.31784 0.0066087 -2.39799e-19)
(7.31565 0.00720461 -5.37318e-19)
(7.3134 0.00775717 2.81747e-19)
(7.31109 0.00825655 3.25433e-19)
(7.30871 0.00869208 -5.1227e-19)
(7.30626 0.00905209 -1.87952e-19)
(7.30373 0.00932432 2.10494e-19)
(7.30112 0.00949512 -2.29617e-19)
(7.29841 0.00954998 5.62649e-21)
(7.29561 0.00947341 -2.71411e-19)
(7.29271 0.00924841 -6.06296e-19)
(7.28968 0.00885717 1.65928e-19)
(7.28653 0.00828051 -4.4673e-21)
(7.28324 0.00749786 -8.09925e-21)
(7.2798 0.00648761 6.54998e-19)
(7.27619 0.0052265 2.46717e-19)
(7.2724 0.00368999 1.38758e-19)
(7.26841 0.00185184 -1.42996e-19)
(7.2642 -0.000315445 0)
(7.25976 -0.00284139 1.8087e-19)
(7.25505 -0.00575687 1.63355e-21)
(7.25005 -0.0090947 2.17516e-19)
(7.24474 -0.0128895 2.43006e-19)
(7.23909 -0.0171783 -2.64314e-19)
(7.23306 -0.0219999 0)
(7.22662 -0.0273958 -6.9888e-21)
(7.21974 -0.0334102 -8.74642e-21)
(7.21238 -0.04009 -2.03374e-19)
(7.20449 -0.0474857 4.39271e-19)
(7.19603 -0.0556507 1.07875e-20)