/*--------------------------------*- C++ -*----------------------------------*\
  =========                 |
  \\      /  F ield         | OpenFOAM: The Open Source CFD Toolbox
   \\    /   O peration     | Website:  https://openfoam.org
    \\  /    A nd           | Version:  11
     \\/     M anipulation  |
\*---------------------------------------------------------------------------*/
FoamFile
{
    format      ascii;
    class       volScalarField;
    location    "470";
    object      nut;
}
// * * * * * * * * * * * * * * * * * * * * * * * * * * * * * * * * * * * * * //

dimensions      [0 2 -1 0 0 0 0];

internalField   nonuniform List<scalar> 
31595
(
0.140021
0.140029
0.140026
0.140024
0.140019
0.140014
0.140009
0.140005
0.140003
0.140004
0.140008
0.140012
0.140016
0.140019
0.140022
0.140025
0.140028
0.140031
0.140033
0.140035
0.140038
0.14004
0.140042
0.140043
0.140045
0.140047
0.140048
0.140049
0.140051
0.140052
0.140053
0.140054
0.140055
0.140056
0.140056
0.140057
0.140058
0.140058
0.140059
0.140059
0.140059
0.14006
0.14006
0.14006
0.14006
0.140059
0.140059
0.140058
0.140057
0.140056
0.140054
0.140051
0.140047
0.140041
0.140036
0.140031
0.140026
0.14002
0.140014
0.140008
0.140001
0.139994
0.139986
0.139977
0.139967
0.139956
0.139945
0.139932
0.139917
0.139901
0.139882
0.139862
0.139837
0.139809
0.139775
0.139735
0.139688
0.139628
0.139558
0.139464
0.139354
0.139185
0.13899
0.138697
0.138334
0.137465
0.136354
0.13113
0.247781
0.140014
0.140023
0.140024
0.14002
0.140017
0.140012
0.140008
0.140004
0.140003
0.140005
0.140008
0.140012
0.140016
0.140019
0.140022
0.140025
0.140028
0.14003
0.140033
0.140035
0.140037
0.140039
0.140041
0.140043
0.140045
0.140046
0.140048
0.140049
0.14005
0.140051
0.140052
0.140053
0.140054
0.140055
0.140056
0.140057
0.140057
0.140058
0.140058
0.140059
0.140059
0.14006
0.14006
0.14006
0.14006
0.14006
0.140059
0.140059
0.140058
0.140057
0.140055
0.140052
0.140047
0.140042
0.140037
0.140031
0.140026
0.14002
0.140014
0.140008
0.140001
0.139994
0.139986
0.139977
0.139967
0.139956
0.139944
0.139931
0.139916
0.1399
0.139882
0.139861
0.139836
0.139807
0.139774
0.139734
0.139687
0.139628
0.139558
0.139466
0.139357
0.13919
0.139006
0.138695
0.138418
0.137452
0.136442
0.129948
0.239895
0.140012
0.14002
0.14002
0.140018
0.140015
0.140011
0.140007
0.140004
0.140003
0.140005
0.140008
0.140012
0.140016
0.140019
0.140022
0.140025
0.140027
0.14003
0.140032
0.140035
0.140037
0.140039
0.140041
0.140042
0.140044
0.140046
0.140047
0.140048
0.14005
0.140051
0.140052
0.140053
0.140054
0.140055
0.140056
0.140056
0.140057
0.140058
0.140058
0.140059
0.140059
0.140059
0.14006
0.14006
0.14006
0.14006
0.140059
0.140059
0.140058
0.140057
0.140055
0.140053
0.140049
0.140044
0.140038
0.140034
0.140028
0.140023
0.140017
0.140011
0.140005
0.139997
0.13999
0.139981
0.139972
0.139961
0.13995
0.139937
0.139923
0.139906
0.139888
0.139867
0.139844
0.139816
0.139784
0.139746
0.139701
0.139646
0.139577
0.139492
0.139377
0.139231
0.139018
0.138755
0.138397
0.137475
0.136424
0.128823
0.232728
0.140009
0.140016
0.140017
0.140015
0.140012
0.140009
0.140006
0.140003
0.140003
0.140005
0.140009
0.140012
0.140016
0.140019
0.140022
0.140025
0.140027
0.14003
0.140032
0.140034
0.140036
0.140038
0.14004
0.140042
0.140044
0.140045
0.140047
0.140048
0.140049
0.140051
0.140052
0.140053
0.140054
0.140055
0.140055
0.140056
0.140057
0.140057
0.140058
0.140058
0.140059
0.140059
0.140059
0.14006
0.14006
0.14006
0.140059
0.140059
0.140058
0.140057
0.140056
0.140053
0.140049
0.140045
0.14004
0.140035
0.14003
0.140025
0.140019
0.140013
0.140007
0.14
0.139992
0.139984
0.139975
0.139965
0.139954
0.139941
0.139927
0.139912
0.139894
0.139874
0.139851
0.139825
0.139794
0.139757
0.139714
0.13966
0.139595
0.139511
0.139404
0.139259
0.139063
0.138772
0.138412
0.137481
0.136428
0.127709
0.225803
0.140006
0.140013
0.140014
0.140013
0.14001
0.140007
0.140004
0.140002
0.140003
0.140006
0.140009
0.140013
0.140016
0.140019
0.140022
0.140025
0.140027
0.14003
0.140032
0.140034
0.140036
0.140038
0.14004
0.140042
0.140043
0.140045
0.140046
0.140048
0.140049
0.14005
0.140051
0.140052
0.140053
0.140054
0.140055
0.140056
0.140057
0.140057
0.140058
0.140058
0.140059
0.140059
0.140059
0.140059
0.14006
0.140059
0.140059
0.140059
0.140058
0.140057
0.140056
0.140054
0.14005
0.140046
0.140041
0.140036
0.140032
0.140027
0.140021
0.140015
0.140009
0.140002
0.139995
0.139987
0.139978
0.139968
0.139958
0.139946
0.139932
0.139917
0.1399
0.139881
0.139858
0.139832
0.139803
0.139767
0.139725
0.139674
0.139611
0.13953
0.139427
0.139288
0.139097
0.138809
0.138424
0.137505
0.13645
0.126833
0.219233
0.140005
0.14001
0.140011
0.14001
0.140008
0.140006
0.140003
0.140002
0.140004
0.140007
0.14001
0.140013
0.140016
0.140019
0.140022
0.140025
0.140027
0.14003
0.140032
0.140034
0.140036
0.140038
0.14004
0.140042
0.140043
0.140045
0.140046
0.140048
0.140049
0.14005
0.140051
0.140052
0.140053
0.140054
0.140055
0.140056
0.140056
0.140057
0.140058
0.140058
0.140059
0.140059
0.140059
0.140059
0.140059
0.140059
0.140059
0.140059
0.140058
0.140058
0.140056
0.140054
0.140051
0.140047
0.140042
0.140038
0.140033
0.140028
0.140023
0.140017
0.140011
0.140005
0.139998
0.13999
0.139981
0.139972
0.139961
0.13995
0.139937
0.139922
0.139905
0.139886
0.139865
0.13984
0.139811
0.139777
0.139736
0.139686
0.139625
0.139548
0.139447
0.139314
0.139128
0.138854
0.138437
0.137585
0.136473
0.127292
0.212338
0.140004
0.140008
0.140009
0.140008
0.140006
0.140004
0.140002
0.140003
0.140005
0.140008
0.140011
0.140014
0.140017
0.14002
0.140022
0.140025
0.140027
0.14003
0.140032
0.140034
0.140036
0.140038
0.14004
0.140041
0.140043
0.140045
0.140046
0.140047
0.140049
0.14005
0.140051
0.140052
0.140053
0.140054
0.140055
0.140056
0.140056
0.140057
0.140057
0.140058
0.140058
0.140059
0.140059
0.140059
0.140059
0.140059
0.140059
0.140059
0.140059
0.140058
0.140057
0.140055
0.140051
0.140047
0.140043
0.140039
0.140034
0.14003
0.140025
0.140019
0.140013
0.140007
0.14
0.139992
0.139984
0.139975
0.139965
0.139953
0.13994
0.139926
0.13991
0.139892
0.139871
0.139847
0.139819
0.139785
0.139746
0.139698
0.139639
0.139564
0.139467
0.139338
0.139158
0.138892
0.138484
0.137668
0.136525
0.127551
0.206046
0.140003
0.140006
0.140007
0.140006
0.140005
0.140003
0.140002
0.140003
0.140006
0.140009
0.140012
0.140015
0.140017
0.14002
0.140023
0.140025
0.140028
0.14003
0.140032
0.140034
0.140036
0.140038
0.14004
0.140041
0.140043
0.140044
0.140046
0.140047
0.140049
0.14005
0.140051
0.140052
0.140053
0.140054
0.140055
0.140055
0.140056
0.140057
0.140057
0.140058
0.140058
0.140059
0.140059
0.140059
0.140059
0.140059
0.140059
0.140059
0.140059
0.140058
0.140057
0.140055
0.140052
0.140048
0.140044
0.14004
0.140036
0.140031
0.140026
0.140021
0.140015
0.140009
0.140002
0.139995
0.139986
0.139977
0.139967
0.139956
0.139944
0.13993
0.139914
0.139897
0.139876
0.139853
0.139826
0.139794
0.139755
0.139709
0.139651
0.139579
0.139485
0.13936
0.139186
0.138929
0.138535
0.137746
0.136641
0.127843
0.199832
0.140002
0.140004
0.140005
0.140004
0.140003
0.140002
0.140002
0.140004
0.140007
0.14001
0.140013
0.140015
0.140018
0.140021
0.140023
0.140025
0.140028
0.14003
0.140032
0.140034
0.140036
0.140038
0.14004
0.140041
0.140043
0.140044
0.140046
0.140047
0.140048
0.14005
0.140051
0.140052
0.140053
0.140054
0.140054
0.140055
0.140056
0.140057
0.140057
0.140058
0.140058
0.140059
0.140059
0.140059
0.140059
0.140059
0.140059
0.140059
0.140059
0.140058
0.140057
0.140055
0.140052
0.140049
0.140045
0.140041
0.140037
0.140032
0.140027
0.140022
0.140017
0.140011
0.140004
0.139997
0.139989
0.13998
0.13997
0.139959
0.139947
0.139934
0.139919
0.139901
0.139881
0.139858
0.139832
0.139801
0.139763
0.139718
0.139662
0.139592
0.139501
0.13938
0.139213
0.138962
0.138582
0.13782
0.136781
0.128125
0.19398
0.140001
0.140003
0.140004
0.140003
0.140002
0.140002
0.140003
0.140005
0.140008
0.140011
0.140013
0.140016
0.140019
0.140021
0.140023
0.140026
0.140028
0.14003
0.140032
0.140034
0.140036
0.140038
0.14004
0.140041
0.140043
0.140044
0.140046
0.140047
0.140048
0.14005
0.140051
0.140052
0.140053
0.140054
0.140054
0.140055
0.140056
0.140057
0.140057
0.140058
0.140058
0.140059
0.140059
0.140059
0.140059
0.140059
0.140059
0.140059
0.140059
0.140058
0.140057
0.140055
0.140053
0.140049
0.140046
0.140042
0.140038
0.140033
0.140029
0.140024
0.140018
0.140012
0.140006
0.139999
0.139991
0.139982
0.139973
0.139962
0.139951
0.139937
0.139922
0.139905
0.139886
0.139864
0.139838
0.139808
0.139771
0.139727
0.139673
0.139604
0.139516
0.139399
0.139235
0.138995
0.138622
0.137889
0.13688
0.128497
0.188729
0.140001
0.140002
0.140002
0.140002
0.140001
0.140002
0.140004
0.140006
0.140009
0.140012
0.140014
0.140017
0.140019
0.140022
0.140024
0.140026
0.140028
0.140031
0.140033
0.140035
0.140036
0.140038
0.14004
0.140042
0.140043
0.140044
0.140046
0.140047
0.140048
0.14005
0.140051
0.140052
0.140053
0.140053
0.140054
0.140055
0.140056
0.140056
0.140057
0.140058
0.140058
0.140058
0.140059
0.140059
0.140059
0.140059
0.140059
0.140059
0.140059
0.140058
0.140057
0.140056
0.140053
0.14005
0.140046
0.140043
0.140039
0.140034
0.14003
0.140025
0.14002
0.140014
0.140007
0.140001
0.139993
0.139985
0.139975
0.139965
0.139954
0.139941
0.139926
0.139909
0.139891
0.139869
0.139844
0.139814
0.139778
0.139736
0.139683
0.139616
0.13953
0.139416
0.139257
0.139025
0.138661
0.137955
0.136978
0.12888
0.183672
0.14
0.140001
0.140001
0.140001
0.140002
0.140003
0.140005
0.140008
0.14001
0.140013
0.140015
0.140017
0.14002
0.140022
0.140025
0.140027
0.140029
0.140031
0.140033
0.140035
0.140037
0.140038
0.14004
0.140042
0.140043
0.140045
0.140046
0.140047
0.140048
0.14005
0.140051
0.140052
0.140053
0.140053
0.140054
0.140055
0.140056
0.140056
0.140057
0.140058
0.140058
0.140058
0.140059
0.140059
0.140059
0.140059
0.140059
0.140059
0.140059
0.140058
0.140057
0.140056
0.140053
0.14005
0.140047
0.140043
0.140039
0.140035
0.140031
0.140026
0.140021
0.140015
0.140009
0.140002
0.139995
0.139987
0.139978
0.139967
0.139956
0.139943
0.139929
0.139913
0.139895
0.139873
0.139849
0.13982
0.139785
0.139743
0.139692
0.139627
0.139543
0.139433
0.139279
0.139053
0.138702
0.138019
0.137086
0.129244
0.178655
0.14
0.140001
0.140001
0.140001
0.140002
0.140004
0.140007
0.140009
0.140011
0.140013
0.140016
0.140018
0.140021
0.140023
0.140025
0.140027
0.140029
0.140031
0.140033
0.140035
0.140037
0.140039
0.14004
0.140042
0.140043
0.140045
0.140046
0.140047
0.140048
0.14005
0.140051
0.140052
0.140053
0.140053
0.140054
0.140055
0.140056
0.140056
0.140057
0.140058
0.140058
0.140058
0.140059
0.140059
0.140059
0.140059
0.140059
0.140059
0.140059
0.140058
0.140057
0.140056
0.140053
0.140051
0.140047
0.140044
0.14004
0.140036
0.140032
0.140027
0.140022
0.140016
0.14001
0.140004
0.139996
0.139988
0.13998
0.13997
0.139958
0.139946
0.139932
0.139916
0.139898
0.139877
0.139853
0.139825
0.139791
0.13975
0.139699
0.139636
0.139555
0.139447
0.139298
0.139078
0.138741
0.138078
0.137191
0.129599
0.173925
0.14
0.140001
0.140001
0.140002
0.140004
0.140006
0.140008
0.14001
0.140012
0.140014
0.140017
0.140019
0.140021
0.140024
0.140026
0.140028
0.14003
0.140032
0.140034
0.140036
0.140037
0.140039
0.140041
0.140042
0.140044
0.140045
0.140046
0.140047
0.140049
0.14005
0.140051
0.140052
0.140053
0.140054
0.140054
0.140055
0.140056
0.140056
0.140057
0.140058
0.140058
0.140058
0.140059
0.140059
0.140059
0.140059
0.140059
0.140059
0.140059
0.140059
0.140058
0.140056
0.140054
0.140051
0.140048
0.140044
0.140041
0.140037
0.140033
0.140028
0.140023
0.140018
0.140012
0.140005
0.139998
0.13999
0.139981
0.139972
0.139961
0.139948
0.139935
0.139919
0.139901
0.139881
0.139857
0.139829
0.139796
0.139755
0.139706
0.139644
0.139564
0.139458
0.139312
0.139099
0.138767
0.138127
0.137244
0.130018
0.169684
0.14
0.140001
0.140002
0.140003
0.140005
0.140007
0.140009
0.140011
0.140013
0.140015
0.140018
0.14002
0.140022
0.140024
0.140026
0.140028
0.14003
0.140032
0.140034
0.140036
0.140038
0.140039
0.140041
0.140042
0.140044
0.140045
0.140046
0.140048
0.140049
0.14005
0.140051
0.140052
0.140053
0.140054
0.140054
0.140055
0.140056
0.140056
0.140057
0.140058
0.140058
0.140058
0.140059
0.140059
0.140059
0.140059
0.140059
0.140059
0.140059
0.140059
0.140058
0.140056
0.140054
0.140051
0.140048
0.140045
0.140041
0.140038
0.140033
0.140029
0.140024
0.140019
0.140013
0.140007
0.139999
0.139992
0.139983
0.139973
0.139963
0.139951
0.139937
0.139922
0.139905
0.139885
0.139861
0.139834
0.139801
0.139762
0.139713
0.139653
0.139575
0.139472
0.13933
0.139122
0.138801
0.138184
0.137326
0.130424
0.165385
0.14
0.140001
0.140002
0.140004
0.140006
0.140008
0.14001
0.140012
0.140014
0.140016
0.140018
0.140021
0.140023
0.140025
0.140027
0.140029
0.140031
0.140033
0.140035
0.140036
0.140038
0.14004
0.140041
0.140043
0.140044
0.140045
0.140047
0.140048
0.140049
0.14005
0.140051
0.140052
0.140053
0.140054
0.140054
0.140055
0.140056
0.140057
0.140057
0.140058
0.140058
0.140059
0.140059
0.140059
0.140059
0.14006
0.14006
0.140059
0.140059
0.140059
0.140058
0.140056
0.140054
0.140052
0.140049
0.140046
0.140042
0.140038
0.140034
0.14003
0.140025
0.14002
0.140014
0.140008
0.140001
0.139993
0.139985
0.139975
0.139964
0.139953
0.13994
0.139925
0.139908
0.139888
0.139865
0.139838
0.139806
0.139767
0.13972
0.13966
0.139584
0.139484
0.139345
0.139144
0.138832
0.138237
0.137405
0.130826
0.161217
0.140001
0.140002
0.140003
0.140005
0.140006
0.140008
0.140011
0.140013
0.140015
0.140017
0.140019
0.140021
0.140024
0.140026
0.140028
0.14003
0.140032
0.140033
0.140035
0.140037
0.140038
0.14004
0.140042
0.140043
0.140044
0.140046
0.140047
0.140048
0.140049
0.14005
0.140051
0.140052
0.140053
0.140054
0.140055
0.140055
0.140056
0.140057
0.140057
0.140058
0.140058
0.140059
0.140059
0.140059
0.140059
0.14006
0.14006
0.14006
0.140059
0.140059
0.140058
0.140057
0.140055
0.140052
0.140049
0.140046
0.140043
0.140039
0.140035
0.140031
0.140026
0.140021
0.140015
0.140009
0.140002
0.139994
0.139986
0.139977
0.139967
0.139955
0.139942
0.139927
0.139911
0.139891
0.139869
0.139842
0.13981
0.139772
0.139726
0.139668
0.139593
0.139495
0.13936
0.139163
0.138858
0.138282
0.137454
0.131237
0.157322
0.140001
0.140002
0.140004
0.140005
0.140007
0.140009
0.140011
0.140014
0.140016
0.140018
0.14002
0.140022
0.140024
0.140026
0.140028
0.14003
0.140032
0.140034
0.140036
0.140037
0.140039
0.14004
0.140042
0.140043
0.140045
0.140046
0.140047
0.140048
0.140049
0.14005
0.140051
0.140052
0.140053
0.140054
0.140055
0.140055
0.140056
0.140057
0.140057
0.140058
0.140058
0.140059
0.140059
0.140059
0.14006
0.14006
0.14006
0.14006
0.140059
0.140059
0.140058
0.140057
0.140055
0.140052
0.140049
0.140046
0.140043
0.14004
0.140036
0.140031
0.140027
0.140022
0.140016
0.14001
0.140003
0.139996
0.139987
0.139978
0.139968
0.139957
0.139944
0.13993
0.139913
0.139894
0.139872
0.139845
0.139814
0.139777
0.139731
0.139674
0.139601
0.139505
0.139373
0.13918
0.138882
0.138324
0.137495
0.131659
0.15351
0.140001
0.140003
0.140004
0.140006
0.140008
0.14001
0.140012
0.140014
0.140017
0.140019
0.140021
0.140023
0.140025
0.140027
0.140029
0.140031
0.140033
0.140035
0.140036
0.140038
0.140039
0.140041
0.140042
0.140044
0.140045
0.140046
0.140047
0.140049
0.14005
0.140051
0.140052
0.140053
0.140053
0.140054
0.140055
0.140056
0.140056
0.140057
0.140057
0.140058
0.140058
0.140059
0.140059
0.140059
0.14006
0.14006
0.14006
0.14006
0.140059
0.140059
0.140058
0.140057
0.140055
0.140052
0.14005
0.140047
0.140044
0.14004
0.140036
0.140032
0.140027
0.140022
0.140017
0.140011
0.140004
0.139997
0.139989
0.13998
0.13997
0.139959
0.139946
0.139932
0.139915
0.139896
0.139874
0.139848
0.139818
0.139781
0.139736
0.13968
0.139608
0.139514
0.139385
0.139197
0.138905
0.138372
0.137538
0.132103
0.149709
0.140001
0.140003
0.140005
0.140007
0.140009
0.140011
0.140013
0.140015
0.140017
0.14002
0.140022
0.140024
0.140026
0.140028
0.14003
0.140032
0.140033
0.140035
0.140037
0.140038
0.14004
0.140041
0.140043
0.140044
0.140045
0.140047
0.140048
0.140049
0.14005
0.140051
0.140052
0.140053
0.140054
0.140054
0.140055
0.140056
0.140056
0.140057
0.140058
0.140058
0.140059
0.140059
0.140059
0.14006
0.14006
0.14006
0.14006
0.14006
0.14006
0.140059
0.140058
0.140057
0.140055
0.140053
0.14005
0.140047
0.140044
0.14004
0.140037
0.140033
0.140028
0.140023
0.140018
0.140012
0.140005
0.139998
0.13999
0.139981
0.139971
0.13996
0.139948
0.139934
0.139917
0.139899
0.139877
0.139852
0.139822
0.139786
0.139742
0.139687
0.139617
0.139525
0.139398
0.139215
0.138929
0.138413
0.137566
0.132536
0.146028
0.140001
0.140003
0.140005
0.140007
0.140009
0.140012
0.140014
0.140016
0.140018
0.14002
0.140023
0.140025
0.140027
0.140029
0.140031
0.140032
0.140034
0.140036
0.140037
0.140039
0.14004
0.140042
0.140043
0.140045
0.140046
0.140047
0.140048
0.140049
0.14005
0.140051
0.140052
0.140053
0.140054
0.140055
0.140055
0.140056
0.140057
0.140057
0.140058
0.140058
0.140059
0.140059
0.140059
0.14006
0.14006
0.14006
0.14006
0.14006
0.14006
0.140059
0.140059
0.140058
0.140056
0.140053
0.14005
0.140047
0.140044
0.140041
0.140037
0.140033
0.140029
0.140024
0.140018
0.140012
0.140006
0.139999
0.139991
0.139982
0.139973
0.139962
0.139949
0.139935
0.139919
0.1399
0.139879
0.139854
0.139824
0.139788
0.139745
0.139691
0.139622
0.139531
0.139406
0.139226
0.138944
0.138442
0.13757
0.132972
0.142358
0.140001
0.140003
0.140006
0.140008
0.14001
0.140012
0.140015
0.140017
0.140019
0.140021
0.140023
0.140025
0.140027
0.140029
0.140031
0.140033
0.140035
0.140036
0.140038
0.14004
0.140041
0.140042
0.140044
0.140045
0.140046
0.140047
0.140049
0.14005
0.140051
0.140052
0.140052
0.140053
0.140054
0.140055
0.140056
0.140056
0.140057
0.140057
0.140058
0.140058
0.140059
0.140059
0.14006
0.14006
0.14006
0.14006
0.14006
0.14006
0.14006
0.140059
0.140059
0.140057
0.140055
0.140053
0.14005
0.140048
0.140045
0.140041
0.140038
0.140033
0.140029
0.140024
0.140019
0.140013
0.140007
0.14
0.139992
0.139983
0.139973
0.139962
0.13995
0.139936
0.13992
0.139902
0.139881
0.139856
0.139826
0.139791
0.139748
0.139695
0.139627
0.139537
0.139414
0.139238
0.138959
0.138483
0.137573
0.133484
0.138588
0.140001
0.140004
0.140006
0.140008
0.140011
0.140013
0.140015
0.140018
0.14002
0.140022
0.140024
0.140026
0.140028
0.14003
0.140032
0.140034
0.140035
0.140037
0.140039
0.14004
0.140042
0.140043
0.140044
0.140046
0.140047
0.140048
0.140049
0.14005
0.140051
0.140052
0.140053
0.140054
0.140054
0.140055
0.140056
0.140056
0.140057
0.140058
0.140058
0.140059
0.140059
0.140059
0.14006
0.14006
0.14006
0.14006
0.14006
0.14006
0.14006
0.14006
0.140059
0.140058
0.140056
0.140054
0.140051
0.140048
0.140045
0.140042
0.140038
0.140034
0.14003
0.140025
0.14002
0.140014
0.140008
0.140001
0.139993
0.139984
0.139975
0.139964
0.139952
0.139938
0.139922
0.139904
0.139883
0.139858
0.13983
0.139795
0.139753
0.139701
0.139634
0.139546
0.139425
0.139252
0.138978
0.138518
0.137571
0.13397
0.134677
0.140001
0.140004
0.140006
0.140009
0.140011
0.140014
0.140016
0.140018
0.140021
0.140023
0.140025
0.140027
0.140029
0.140031
0.140033
0.140034
0.140036
0.140038
0.140039
0.140041
0.140042
0.140044
0.140045
0.140046
0.140047
0.140048
0.140049
0.14005
0.140051
0.140052
0.140053
0.140054
0.140055
0.140055
0.140056
0.140057
0.140057
0.140058
0.140058
0.140059
0.140059
0.14006
0.14006
0.14006
0.14006
0.14006
0.14006
0.14006
0.14006
0.14006
0.140059
0.140058
0.140057
0.140054
0.140051
0.140048
0.140045
0.140042
0.140038
0.140035
0.14003
0.140026
0.140021
0.140015
0.140009
0.140002
0.139994
0.139985
0.139975
0.139964
0.139952
0.139938
0.139923
0.139905
0.139884
0.13986
0.139831
0.139797
0.139756
0.139704
0.139638
0.139551
0.139432
0.139261
0.138989
0.138544
0.13754
0.13449
0.130447
0.140001
0.140004
0.140007
0.140009
0.140012
0.140014
0.140017
0.140019
0.140021
0.140024
0.140026
0.140028
0.14003
0.140032
0.140033
0.140035
0.140037
0.140038
0.14004
0.140041
0.140043
0.140044
0.140045
0.140047
0.140048
0.140049
0.14005
0.140051
0.140052
0.140053
0.140053
0.140054
0.140055
0.140056
0.140056
0.140057
0.140057
0.140058
0.140058
0.140059
0.140059
0.14006
0.14006
0.14006
0.14006
0.14006
0.140061
0.14006
0.14006
0.14006
0.140059
0.140057
0.140055
0.140053
0.140051
0.140048
0.140045
0.140042
0.140039
0.140035
0.140031
0.140026
0.140021
0.140015
0.140008
0.140001
0.139993
0.139985
0.139975
0.139964
0.139952
0.139938
0.139923
0.139905
0.139884
0.139861
0.139832
0.139798
0.139757
0.139705
0.13964
0.139553
0.139435
0.139266
0.138993
0.138572
0.137493
0.135139
0.125589
0.140001
0.140004
0.140007
0.14001
0.140013
0.140015
0.140018
0.14002
0.140022
0.140024
0.140026
0.140029
0.14003
0.140032
0.140034
0.140036
0.140037
0.140039
0.140041
0.140042
0.140043
0.140045
0.140046
0.140047
0.140048
0.140049
0.14005
0.140051
0.140052
0.140053
0.140054
0.140055
0.140055
0.140056
0.140057
0.140057
0.140058
0.140058
0.140059
0.140059
0.14006
0.14006
0.14006
0.14006
0.140061
0.140061
0.140061
0.140061
0.14006
0.14006
0.140059
0.140058
0.140057
0.140055
0.140052
0.14005
0.140047
0.140043
0.14004
0.140036
0.140031
0.140026
0.140021
0.140015
0.140008
0.140001
0.139994
0.139985
0.139975
0.139965
0.139953
0.139939
0.139924
0.139906
0.139886
0.139862
0.139834
0.139801
0.13976
0.139709
0.139644
0.139558
0.139441
0.139274
0.139002
0.138596
0.137434
0.135795
0.119656
0.140002
0.140005
0.140008
0.14001
0.140013
0.140016
0.140018
0.140021
0.140023
0.140025
0.140027
0.140029
0.140031
0.140033
0.140035
0.140037
0.140038
0.14004
0.140041
0.140043
0.140044
0.140045
0.140046
0.140048
0.140049
0.14005
0.140051
0.140052
0.140052
0.140053
0.140054
0.140055
0.140056
0.140056
0.140057
0.140057
0.140058
0.140059
0.140059
0.140059
0.14006
0.14006
0.14006
0.140061
0.140061
0.140061
0.140061
0.140061
0.140061
0.14006
0.14006
0.140059
0.140057
0.140055
0.140053
0.14005
0.140046
0.140043
0.140039
0.140035
0.14003
0.140025
0.14002
0.140014
0.140008
0.140001
0.139994
0.139985
0.139976
0.139966
0.139954
0.139941
0.139926
0.139909
0.139889
0.139866
0.139839
0.139806
0.139766
0.139716
0.139653
0.13957
0.139455
0.139293
0.139026
0.138642
0.137413
0.136568
0.111911
0.140002
0.140005
0.140008
0.140011
0.140014
0.140016
0.140019
0.140021
0.140024
0.140026
0.140028
0.14003
0.140032
0.140034
0.140036
0.140037
0.140039
0.14004
0.140042
0.140043
0.140044
0.140046
0.140047
0.140048
0.140049
0.14005
0.140051
0.140052
0.140053
0.140054
0.140054
0.140055
0.140056
0.140057
0.140057
0.140058
0.140058
0.140059
0.140059
0.14006
0.14006
0.14006
0.140061
0.140061
0.140061
0.140061
0.140061
0.140061
0.14006
0.14006
0.140059
0.140057
0.140055
0.140053
0.14005
0.140047
0.140044
0.140041
0.140037
0.140034
0.140029
0.140025
0.140019
0.140014
0.140008
0.140001
0.139993
0.139985
0.139976
0.139966
0.139954
0.139941
0.139926
0.139908
0.139888
0.139865
0.139837
0.139804
0.139763
0.139713
0.139648
0.139564
0.139448
0.139284
0.139013
0.138637
0.137336
0.137148
0.102024
0.140002
0.140005
0.140008
0.140011
0.140014
0.140017
0.140019
0.140022
0.140024
0.140026
0.140029
0.140031
0.140033
0.140034
0.140036
0.140038
0.140039
0.140041
0.140042
0.140044
0.140045
0.140046
0.140047
0.140049
0.14005
0.140051
0.140052
0.140052
0.140053
0.140054
0.140055
0.140056
0.140056
0.140057
0.140058
0.140058
0.140059
0.140059
0.140059
0.14006
0.14006
0.140061
0.140061
0.140061
0.140061
0.140061
0.140061
0.140061
0.140061
0.140061
0.14006
0.140059
0.140057
0.140055
0.140052
0.14005
0.140047
0.140043
0.14004
0.140036
0.140032
0.140027
0.140022
0.140016
0.14001
0.140003
0.139995
0.139987
0.139977
0.139967
0.139955
0.139941
0.139926
0.139908
0.139887
0.139863
0.139834
0.139799
0.139757
0.139704
0.139637
0.139549
0.139428
0.139256
0.138975
0.138578
0.137262
0.136896
0.102224
0.140002
0.140005
0.140008
0.140012
0.140014
0.140017
0.14002
0.140022
0.140025
0.140027
0.140029
0.140031
0.140033
0.140035
0.140037
0.140038
0.14004
0.140042
0.140043
0.140044
0.140046
0.140047
0.140048
0.140049
0.14005
0.140051
0.140052
0.140053
0.140054
0.140055
0.140055
0.140056
0.140057
0.140057
0.140058
0.140058
0.140059
0.140059
0.14006
0.14006
0.140061
0.140061
0.140061
0.140061
0.140061
0.140061
0.140061
0.140061
0.140061
0.140061
0.14006
0.140059
0.140058
0.140056
0.140053
0.140051
0.140048
0.140044
0.140041
0.140037
0.140033
0.140028
0.140023
0.140017
0.140011
0.140005
0.139997
0.139989
0.139979
0.139969
0.139957
0.139944
0.139928
0.139911
0.13989
0.139867
0.139838
0.139804
0.139763
0.139711
0.139646
0.139559
0.139441
0.139273
0.138998
0.138601
0.137374
0.136371
0.112069
0.140002
0.140005
0.140009
0.140012
0.140015
0.140018
0.14002
0.140023
0.140025
0.140028
0.14003
0.140032
0.140034
0.140036
0.140037
0.140039
0.140041
0.140042
0.140044
0.140045
0.140046
0.140047
0.140048
0.14005
0.140051
0.140052
0.140052
0.140053
0.140054
0.140055
0.140056
0.140056
0.140057
0.140058
0.140058
0.140059
0.140059
0.14006
0.14006
0.14006
0.140061
0.140061
0.140061
0.140061
0.140061
0.140062
0.140061
0.140061
0.140061
0.14006
0.140059
0.140058
0.140056
0.140053
0.140051
0.140048
0.140045
0.140042
0.140039
0.140035
0.140031
0.140026
0.140021
0.140016
0.14001
0.140003
0.139996
0.139988
0.139978
0.139968
0.139957
0.139944
0.139929
0.139912
0.139892
0.139869
0.139841
0.139808
0.139768
0.139717
0.139653
0.139568
0.139451
0.139284
0.139015
0.138599
0.137476
0.135576
0.120308
0.140002
0.140005
0.140009
0.140012
0.140015
0.140018
0.140021
0.140023
0.140026
0.140028
0.14003
0.140032
0.140034
0.140036
0.140038
0.14004
0.140041
0.140043
0.140044
0.140045
0.140047
0.140048
0.140049
0.14005
0.140051
0.140052
0.140053
0.140054
0.140055
0.140055
0.140056
0.140057
0.140057
0.140058
0.140059
0.140059
0.14006
0.14006
0.14006
0.140061
0.140061
0.140061
0.140061
0.140062
0.140062
0.140062
0.140062
0.140062
0.140061
0.140061
0.14006
0.140059
0.140057
0.140054
0.140052
0.140049
0.140045
0.140042
0.140038
0.140034
0.14003
0.140025
0.14002
0.140015
0.140008
0.140002
0.139994
0.139986
0.139977
0.139966
0.139955
0.139942
0.139927
0.139909
0.139889
0.139866
0.139838
0.139804
0.139763
0.139712
0.139646
0.13956
0.139441
0.139272
0.138999
0.138564
0.137515
0.134872
0.126362
0.140002
0.140006
0.140009
0.140012
0.140015
0.140018
0.140021
0.140024
0.140026
0.140029
0.140031
0.140033
0.140035
0.140037
0.140038
0.14004
0.140042
0.140043
0.140045
0.140046
0.140047
0.140048
0.140049
0.140051
0.140052
0.140053
0.140053
0.140054
0.140055
0.140056
0.140056
0.140057
0.140058
0.140058
0.140059
0.140059
0.14006
0.14006
0.140061
0.140061
0.140061
0.140062
0.140062
0.140062
0.140062
0.140062
0.140062
0.140062
0.140062
0.140061
0.140061
0.14006
0.140058
0.140056
0.140053
0.14005
0.140047
0.140043
0.140039
0.140035
0.140031
0.140026
0.14002
0.140015
0.140008
0.140002
0.139994
0.139985
0.139976
0.139966
0.139954
0.13994
0.139925
0.139908
0.139887
0.139864
0.139835
0.139801
0.13976
0.139708
0.139642
0.139555
0.139434
0.139263
0.138988
0.138538
0.137553
0.134305
0.13127
0.140002
0.140006
0.140009
0.140012
0.140016
0.140019
0.140021
0.140024
0.140027
0.140029
0.140031
0.140033
0.140035
0.140037
0.140039
0.140041
0.140042
0.140044
0.140045
0.140046
0.140048
0.140049
0.14005
0.140051
0.140052
0.140053
0.140054
0.140055
0.140055
0.140056
0.140057
0.140058
0.140058
0.140059
0.140059
0.14006
0.14006
0.140061
0.140061
0.140061
0.140062
0.140062
0.140062
0.140062
0.140062
0.140062
0.140062
0.140062
0.140062
0.140061
0.14006
0.140058
0.140057
0.140055
0.140052
0.14005
0.140047
0.140043
0.14004
0.140036
0.140031
0.140026
0.14002
0.140015
0.140008
0.140001
0.139993
0.139985
0.139975
0.139965
0.139953
0.13994
0.139924
0.139907
0.139886
0.139862
0.139834
0.1398
0.139758
0.139706
0.13964
0.139552
0.139431
0.139257
0.138982
0.138506
0.137584
0.133698
0.135555
0.140002
0.140006
0.140009
0.140013
0.140016
0.140019
0.140022
0.140024
0.140027
0.140029
0.140031
0.140034
0.140036
0.140038
0.140039
0.140041
0.140043
0.140044
0.140046
0.140047
0.140048
0.140049
0.14005
0.140052
0.140053
0.140053
0.140054
0.140055
0.140056
0.140057
0.140057
0.140058
0.140059
0.140059
0.14006
0.14006
0.140061
0.140061
0.140061
0.140062
0.140062
0.140062
0.140062
0.140062
0.140062
0.140062
0.140062
0.140062
0.140062
0.140061
0.140061
0.140059
0.140057
0.140055
0.140052
0.140049
0.140046
0.140043
0.140039
0.140036
0.140031
0.140026
0.140021
0.140015
0.140008
0.140001
0.139993
0.139984
0.139975
0.139964
0.139952
0.139938
0.139923
0.139905
0.139884
0.13986
0.139832
0.139797
0.139755
0.139702
0.139635
0.139546
0.139423
0.139246
0.138968
0.138477
0.137593
0.133214
0.139483
0.140002
0.140006
0.140009
0.140013
0.140016
0.140019
0.140022
0.140024
0.140027
0.14003
0.140032
0.140034
0.140036
0.140038
0.14004
0.140041
0.140043
0.140045
0.140046
0.140047
0.140049
0.14005
0.140051
0.140052
0.140053
0.140054
0.140055
0.140056
0.140056
0.140057
0.140058
0.140058
0.140059
0.140059
0.14006
0.14006
0.140061
0.140061
0.140062
0.140062
0.140062
0.140062
0.140063
0.140063
0.140063
0.140063
0.140063
0.140062
0.140062
0.140062
0.140061
0.14006
0.140058
0.140055
0.140052
0.140049
0.140046
0.140043
0.140039
0.140035
0.140031
0.140026
0.140021
0.140015
0.140008
0.140001
0.139993
0.139984
0.139974
0.139963
0.139951
0.139937
0.139921
0.139903
0.139882
0.139858
0.139829
0.139794
0.139751
0.139697
0.139629
0.139539
0.139414
0.139234
0.138951
0.138447
0.137588
0.132773
0.143247
0.140002
0.140006
0.140009
0.140013
0.140016
0.140019
0.140022
0.140025
0.140027
0.14003
0.140032
0.140034
0.140036
0.140038
0.14004
0.140042
0.140044
0.140045
0.140047
0.140048
0.140049
0.14005
0.140051
0.140052
0.140053
0.140054
0.140055
0.140056
0.140057
0.140058
0.140058
0.140059
0.140059
0.14006
0.14006
0.140061
0.140061
0.140062
0.140062
0.140062
0.140062
0.140063
0.140063
0.140063
0.140063
0.140063
0.140063
0.140063
0.140062
0.140062
0.140061
0.140059
0.140057
0.140055
0.140052
0.140049
0.140046
0.140043
0.140039
0.140035
0.14003
0.140025
0.14002
0.140014
0.140008
0.140001
0.139993
0.139984
0.139974
0.139963
0.13995
0.139936
0.13992
0.139902
0.139881
0.139856
0.139827
0.139791
0.139748
0.139694
0.139624
0.139533
0.139406
0.139222
0.138936
0.138407
0.137571
0.132303
0.147
0.140002
0.140006
0.140009
0.140013
0.140016
0.140019
0.140022