/*--------------------------------*- C++ -*----------------------------------*\
  =========                 |
  \\      /  F ield         | OpenFOAM: The Open Source CFD Toolbox
   \\    /   O peration     | Website:  https://openfoam.org
    \\  /    A nd           | Version:  11
     \\/     M anipulation  |
\*---------------------------------------------------------------------------*/
FoamFile
{
    format      ascii;
    class       volScalarField;
    location    "470";
    object      p;
}
// * * * * * * * * * * * * * * * * * * * * * * * * * * * * * * * * * * * * * //

dimensions      [0 2 -2 0 0 0 0];

internalField   nonuniform List<scalar> 
31595
(
0.197079
0.105686
0.158142
0.150786
0.175383
0.178663
0.19784
0.206663
0.222586
0.234263
0.249079
0.262202
0.276787
0.290798
0.305536
0.32017
0.335209
0.350319
0.365682
0.381157
0.396793
0.412518
0.428324
0.444163
0.460002
0.475794
0.491499
0.507068
0.522455
0.537611
0.552491
0.567052
0.581255
0.595063
0.60845
0.621396
0.633893
0.645942
0.657557
0.668768
0.679619
0.690168
0.700493
0.710686
0.720856
0.731129
0.741648
0.75257
0.764067
0.776325
0.789543
0.803931
0.819707
0.837104
0.856358
0.877713
0.901419
0.927732
0.95691
0.98921
1.0249
1.06422
1.10745
1.15481
1.20655
1.26288
1.32398
1.39002
1.4611
1.53727
1.61846
1.70452
1.7951
1.88973
1.98729
2.08717
2.18596
2.28473
2.37129
2.45896
2.50007
2.56699
2.47637
2.52759
2.09107
2.15068
0.92416
0.929125
-2.12768
0.158157
0.126699
0.142028
0.156847
0.17046
0.181055
0.195084
0.207232
0.220668
0.2336
0.247222
0.260738
0.274686
0.288732
0.30309
0.317623
0.332409
0.347386
0.362575
0.37794
0.393473
0.409145
0.424933
0.440806
0.456735
0.472686
0.488625
0.504514
0.520318
0.536003
0.551536
0.566885
0.582022
0.59693
0.611593
0.626006
0.640173
0.654108
0.667836
0.681398
0.694849
0.708256
0.721705
0.735294
0.74914
0.763373
0.778142
0.793607
0.809946
0.827348
0.846018
0.86617
0.888031
0.911838
0.937837
0.966284
0.997441
1.03158
1.06897
1.1099
1.15464
1.20348
1.25671
1.3146
1.37743
1.44544
1.51889
1.59797
1.68286
1.77366
1.87039
1.97299
2.08118
2.19459
2.31225
2.43354
2.55543
2.67849
2.79178
2.90653
2.97837
3.07479
3.01631
3.10214
2.68208
2.7985
1.52956
1.62056
-1.46791
0.143923
0.132558
0.137913
0.156954
0.169303
0.18105
0.193854
0.206572
0.219321
0.232299
0.245489
0.258889
0.272521
0.286392
0.300503
0.314856
0.329448
0.344273
0.35932
0.374579
0.390035
0.40567
0.421465
0.437399
0.453446
0.469583
0.485784
0.502023
0.518275
0.534515
0.550721
0.566877
0.582968
0.598986
0.614929
0.630805
0.646628
0.662425
0.678235
0.694106
0.710104
0.726305
0.742802
0.759702
0.777127
0.795214
0.814116
0.834001
0.85505
0.877459
0.901436
0.927205
0.954998
0.985062
1.01765
1.05304
1.09149
1.1333
1.17876
1.22817
1.28183
1.34006
1.40318
1.47149
1.54532
1.62495
1.71069
1.80279
1.9015
2.00699
2.11939
2.2387
2.36476
2.4973
2.63554
2.77887
2.92469
3.0731
3.21458
3.35797
3.46349
3.59082
3.57153
3.69065
3.30312
3.46846
2.17176
2.2999
-0.994003
0.141933
0.135155
0.137707
0.156139
0.169085
0.180505
0.192948
0.205485
0.217974
0.230682
0.24361
0.256762
0.27015
0.283792
0.29769
0.311848
0.326264
0.340937
0.35586
0.371027
0.386425
0.402044
0.41787
0.433886
0.450078
0.466427
0.482918
0.499532
0.516256
0.533073
0.549974
0.566953
0.584007
0.601138
0.618357
0.635684
0.653144
0.670774
0.688624
0.706752
0.725233
0.744153
0.763611
0.783722
0.804616
0.826436
0.849342
0.873507
0.899118
0.926377
0.955502
0.986721
1.02028
1.05643
1.09543
1.13758
1.18316
1.23247
1.28583
1.34356
1.40599
1.47346
1.54633
1.62494
1.70965
1.80082
1.89879
2.00388
2.11641
2.23665
2.36479
2.50098
2.64514
2.79715
2.95643
3.12242
3.29295
3.46781
3.63877
3.81256
3.95413
4.11464
4.13995
4.29293
3.95138
4.16131
2.84866
2.99541
-0.604897
0.142527
0.138356
0.138549
0.155812
0.168996
0.180027
0.192014
0.204268
0.216474
0.228877
0.241525
0.254411
0.267547
0.280955
0.294637
0.3086
0.322845
0.337373
0.35218
0.367263
0.382616
0.398232
0.414103
0.43022
0.446573
0.463152
0.479949
0.496954
0.514162
0.531568
0.549172
0.566977
0.584993
0.603231
0.621713
0.640469
0.659536
0.678962
0.698804
0.719132
0.740028
0.761587
0.783917
0.807141
0.831395
0.85683
0.883612
0.91192
0.94195
0.973911
1.00803
1.04454
1.08369
1.12575
1.17101
1.21975
1.27228
1.32893
1.39002
1.45591
1.52695
1.60352
1.686
1.77478
1.87026
1.97287
2.08299
2.20103
2.32737
2.46237
2.60634
2.75951
2.922
3.09378
3.27448
3.46369
3.65961
3.86185
4.0634
4.26918
4.44861
4.64459
4.71814
4.90647
4.62032
4.87099
3.55613
3.82458
0.195186
0.144232
0.141933
0.14005
0.155837
0.168968
0.179567
0.191023
0.202911
0.214796
0.226867
0.239211
0.251816
0.264692
0.277857
0.29132
0.305087
0.319161
0.333546
0.348242
0.363249
0.378565
0.394188
0.410114
0.426341
0.442865
0.459683
0.476794
0.494198
0.511897
0.529895
0.548202
0.56683
0.585797
0.605126
0.62485
0.645006
0.665642
0.686817
0.708596
0.731058
0.754295
0.77841
0.803518
0.82975
0.85725
0.886175
0.9167
0.949011
0.98331
1.01982
1.05876
1.10039
1.14497
1.19277
1.24409
1.29924
1.35854
1.42234
1.49098
1.56484
1.64432
1.72981
1.82173
1.92052
2.02664
2.14055
2.2627
2.39359
2.53367
2.68339
2.84319
3.01341
3.19433
3.38609
3.58851
3.80135
4.02322
4.25369
4.48682
4.72612
4.9451
5.17913
5.30423
5.53089
5.30892
5.59796
4.30732
4.73541
1.0396
0.145941
0.145444
0.141866
0.156049
0.168902
0.179058
0.189929
0.201389
0.212917
0.224635
0.236652
0.248961
0.261563
0.274478
0.287715
0.301282
0.315184
0.329426
0.344012
0.358944
0.374226
0.389859
0.405845
0.422186
0.438884
0.455945
0.473371
0.491173
0.50936
0.527944
0.546943
0.566379
0.586279
0.606674
0.627608
0.649126
0.671286
0.694154
0.717807
0.742331
0.767827
0.794404
0.822189
0.851317
0.881942
0.914227
0.948354
0.984519
1.02293
1.06381
1.10741
1.15398
1.2038
1.25715
1.31434
1.3757
1.44157
1.5123
1.58828
1.66991
1.7576
1.85179
1.95294
2.06154
2.17809
2.30309
2.43709
2.58064
2.73431
2.89862
3.07414
3.26134
3.46068
3.67246
3.89674
4.13351
4.38175
4.64114
4.90672
5.18099
5.44121
5.71617
5.89625
6.16594
6.01722
6.34731
5.11027
5.64207
1.60827
0.14738
0.148574
0.143748
0.156285
0.168704
0.17841
0.188677
0.199663
0.210803
0.22215
0.233822
0.245819
0.258138
0.270794
0.283799
0.297161
0.310886
0.324982
0.339456
0.354313
0.369559
0.385201
0.401245
0.417697
0.434568
0.451867
0.469605
0.487798
0.506462
0.52562
0.545294
0.565515
0.58632
0.60775
0.629853
0.652686
0.676316
0.700816
0.726272
0.75278
0.780445
0.809388
0.839742
0.87165
0.905272
0.940781
0.978367
1.01823
1.06059
1.10568
1.15376
1.20508
1.25994
1.31864
1.3815
1.44885
1.52106
1.59852
1.68161
1.77077
1.86644
1.9691
2.07925
2.19741
2.32414
2.46001
2.60563
2.76164
2.92866
3.10738
3.29845
3.50251
3.72016
3.95194
4.19814
4.45899
4.73391
5.02273
5.3215
5.63199
5.93491
6.25345
6.49154
6.80885
6.74153
7.11672
5.9646
6.55965
2.10759
0.148366
0.15111
0.145474
0.156409
0.168278
0.17754
0.187208
0.197688
0.208419
0.219382
0.230695
0.242369
0.254394
0.266783
0.279548
0.292699
0.306242
0.320188
0.334545
0.349322
0.364529
0.380175
0.396272
0.412831
0.429867
0.447395
0.465434
0.484005
0.50313
0.52284
0.543167
0.564147
0.585822
0.608247
0.631476
0.655574
0.680614
0.70668
0.733865
0.762272
0.792016
0.823225
0.856037
0.890607
0.927099
0.965697
1.0066
1.05
1.09615
1.14529
1.19766
1.25356
1.31327
1.37712
1.44544
1.51859
1.59693
1.68089
1.77087
1.86735
1.97079
2.08169
2.2006
2.32811
2.46481
2.61133
2.76836
2.93661
3.11682
3.30977
3.51625
3.73705
3.97295
4.2247
4.49287
4.77794
5.07979
5.39848
5.73103
6.07876
6.42552
6.78973
7.08805
7.45644
7.47624
7.89791
6.85027
7.50012
3.15678
0.148839
0.152939
0.146878
0.156308
0.167545
0.176371
0.18546
0.19542
0.205725
0.216296
0.227242
0.238581
0.250304
0.262418
0.274935
0.287866
0.30122
0.315008
0.329242
0.343931
0.35909
0.374732
0.390872
0.407526
0.424716
0.44246
0.460782
0.47971
0.499275
0.519511
0.540459
0.562161
0.58467
0.608043
0.632344
0.657647
0.684034
0.711593
0.740425
0.770643
0.802368
0.835736
0.870893
0.908
0.947231
0.988775
1.03284
1.07963
1.1294
1.1824
1.2389
1.29917
1.36354
1.43234
1.50591
1.58462
1.66889
1.75911
1.85576
1.9593
2.07025
2.18916
2.3166
2.45318
2.59959
2.75651
2.92469
3.10494
3.29809
3.50503
3.72668
3.96401
4.21799
4.48957
4.77962
5.08893
5.41779
5.76665
6.13341
6.51922
6.91085
7.3228
7.68356
8.10728
8.22017
8.69285
7.76513
8.47522
4.30918
0.14876
0.153994
0.147836
0.155889
0.166438
0.174837
0.183375
0.192812
0.202683
0.212857
0.223429
0.234427
0.245838
0.257668
0.269929
0.282632
0.295788
0.309409
0.323508
0.338098
0.353197
0.368822
0.38499
0.401725
0.419049
0.436987
0.455569
0.47483
0.494804
0.515533
0.537062
0.559445
0.582739
0.607007
0.632322
0.658764
0.68642
0.71539
0.745781
0.777711
0.811311
0.846722
0.884098
0.923609
0.965435
1.00977
1.05684
1.10685
1.16006
1.21673
1.27714
1.34159
1.4104
1.48391
1.56249
1.64653
1.73644
1.83267
1.9357
2.04602
2.16418
2.29077
2.42641
2.57175
2.72751
2.89446
3.07343
3.26529
3.47097
3.69149
3.92792
4.18139
4.45304
4.74406
5.05562
5.38885
5.74449
6.12339
6.5244
6.94874
7.38589
7.84739
8.27259
8.75661
8.96878
9.5023
8.71716
9.4811
5.13239
0.148123
0.154249
0.148254
0.155076
0.164905
0.172884
0.180904
0.189826
0.199258
0.209034
0.219229
0.229878
0.240971
0.252509
0.264505
0.276971
0.289918
0.303359
0.317311
0.331789
0.346813
0.362404
0.378583
0.395377
0.412811
0.43092
0.449736
0.469296
0.489645
0.510828
0.532897
0.555911
0.579935
0.605039
0.631302
0.658809
0.687657
0.717951
0.749805
0.783345
0.818707
0.856041
0.895509
0.937285
0.981558
1.02853
1.07843
1.13148
1.18795
1.24809
1.31221
1.38062
1.45364
1.53163
1.61498
1.70408
1.79938
1.90134
2.01045
2.12726
2.25233
2.38627
2.52976
2.6835
2.84827
3.02487
3.21422
3.41728
3.63509
3.86876
4.11951
4.38864
4.6775
4.9875
5.32012
5.67684
6.05887
6.46755
6.90262
7.36561
7.84856
8.36082
8.85182
9.39986
9.71619
10.318
9.70183
10.5115
5.99685
0.14693
0.153695
0.148068
0.153811
0.162903
0.170468
0.178004
0.186425
0.195419
0.204797
0.214615
0.224912
0.23568
0.246919
0.258642
0.270859
0.283586
0.296836
0.310626
0.324977
0.339909
0.355446
0.371616
0.388445
0.405967
0.424217
0.443234
0.463061
0.483747
0.505341
0.527906
0.551501
0.576198
0.602075
0.629217
0.657717
0.687676
0.719206
0.752428
0.787475
0.824491
0.86363
0.905062
0.94897
0.995548
1.04501
1.09758
1.15351
1.21305
1.27649
1.34413
1.41629
1.49332
1.57558
1.66346
1.75741
1.85785
1.96529
2.08024
2.20327
2.33497
2.47601
2.62707
2.78892
2.96238
3.14835
3.34778
3.56172
3.79134
4.03783
4.30257
4.58703
4.89277
5.22144
5.57482
5.95474
6.36291
6.80118
7.27018
7.7719
8.30076
8.86448
9.4219
10.036
10.4591
11.1305
10.697
11.5513
7.58186
0.145183
0.15234
0.14723
0.152045
0.160399
0.167554
0.174639
0.182576
0.191135
0.200118
0.209559
0.219501
0.229938
0.24087
0.252309
0.264267
0.276759
0.289802
0.303414
0.317619
0.332438
0.3479
0.364033
0.380871
0.398448
0.416806
0.435988
0.45604
0.477017
0.498974
0.521979
0.546096
0.571403
0.597984
0.625929
0.655338
0.686319
0.718988
0.753475
0.789918
0.828466
0.869282
0.912542
0.958435
1.00716
1.05895
1.11402
1.17264
1.23507
1.3016
1.37255
1.44824
1.52904
1.61532
1.7075
1.80602
1.91133
2.02397
2.14445
2.27339
2.4114
2.55918
2.71746
2.88704
3.06881
3.26372
3.4728
3.69719
3.93813
4.19697
4.4752
4.77445
5.0965
5.44326
5.8168
6.21933
6.65306
7.12039
7.62286
8.16305
8.7377
9.35361
9.97822
10.6619
11.1957
11.9469
11.7112
12.6261
8.89325
0.142889
0.1502
0.145711
0.149743
0.157369
0.164116
0.170779
0.178253
0.186383
0.194972
0.204039
0.213622
0.223722
0.23434
0.245483
0.257169
0.269412
0.282231
0.295645
0.309682
0.324364
0.339724
0.355793
0.372607
0.390206
0.408634
0.427939
0.448172
0.469391
0.491656
0.515039
0.539614
0.565462
0.592671
0.621337
0.651566
0.683472
0.717178
0.752818
0.790536
0.830489
0.872845
0.917787
0.965509
1.01622
1.07015
1.12755
1.18866
1.25377
1.32317
1.3972
1.47619
1.5605
1.65054
1.74673
1.84952
1.9594
2.0769
2.20258
2.33707
2.48101
2.63512
2.80019
2.97707
3.16667
3.37001
3.5882
3.82245
4.0741
4.34462
4.63562
4.94891
5.28646
5.65043
6.0432
6.46735
6.92559
7.42088
7.95568
8.53331
9.15267
9.82031
10.5115
11.2667
11.9125
12.7525
12.7306
13.719
10.0924
0.140053
0.147301
0.14349
0.146876
0.153795
0.160136
0.166403
0.173434
0.181144
0.189343
0.198036
0.207258
0.217016
0.227309
0.238147
0.249547
0.261525
0.274102
0.287299
0.301143
0.315663
0.330893
0.346867
0.363624
0.381207
0.399664
0.419047
0.439412
0.460821
0.483339
0.507042
0.532007
0.558324
0.586083
0.615387
0.646347
0.679081
0.713719
0.750401
0.789277
0.830509
0.874272
0.920754
0.970156
1.0227
1.07861
1.13814
1.20156
1.26915
1.34123
1.41812
1.50018
1.58778
1.68133
1.78127
1.88807
2.00224
2.12431
2.25489
2.3946
2.54413
2.70424
2.87574
3.05952
3.25656
3.46792
3.69476
3.93841
4.20028
4.48194
4.78516
5.1119
5.46431
5.84481
6.25609
6.70108
7.183
7.70538
8.27157
8.88571
9.54876
10.2674
11.0241
11.8512
12.6089
13.5403
13.7425
14.8053
11.6702
0.13668
0.14367
0.140559
0.143423
0.149666
0.155601
0.161495
0.168104
0.1754
0.183213
0.191532
0.200392
0.209801
0.219761
0.230281
0.241381
0.253075
0.26539
0.278347
0.291975
0.306305
0.321373
0.337216
0.35388
0.371406
0.389849
0.409263
0.429706
0.451249
0.47396
0.497917
0.523202
0.54991
0.578136
0.607991
0.639586
0.673047
0.70851
0.746119
0.78603
0.828411
0.873442
0.921317
0.972244
1.02645
1.08417
1.14566
1.2112
1.28108
1.35561
1.43515
1.52004
1.61069
1.70751
1.81094
1.92148
2.03964
2.16599
2.30114
2.44575
2.60054
2.76629
2.94384
3.13413
3.33818
3.55712
3.79217
4.04471
4.31626
4.60852
4.92336
5.2629
5.62949
6.02579
6.45476
6.91974
7.42439
7.97286
8.56937
9.21892
9.92445
10.6932
11.5142
12.4136
13.2825
14.3098
14.7424
15.888
13.3283
0.132772
0.139337
0.136918
0.13937
0.144972
0.150504
0.156041
0.162248
0.16914
0.176569
0.184515
0.193009
0.202061
0.211677
0.221867
0.232648
0.244041
0.256071
0.268761
0.282144
0.296253
0.311125
0.326802
0.34333
0.360755
0.379135
0.398525
0.418994
0.440608
0.463442
0.48758
0.51311
0.540126
0.568732
0.599038
0.631168
0.665248
0.701419
0.73983
0.780644
0.824032
0.870181
0.919291
0.971576
1.02727
1.0866
1.14986
1.2173
1.28925
1.36602
1.44795
1.53543
1.62885
1.72864
1.83527
1.94923
2.07106
2.20134
2.3407
2.48982
2.64944
2.82038
3.00352
3.19982
3.41035
3.63629
3.87893
4.13971
4.42024
4.72232
5.04793
5.39935
5.77912
6.19011
6.63557
7.11919
7.64512
8.21806
8.84308
9.52611
10.2719
11.0887
11.9715
12.9424
13.9201
15.0493
15.7166
16.9649
14.7891
0.12833
0.134336
0.132572
0.13471
0.139712
0.144843
0.150039
0.155861
0.162358
0.169405
0.176977
0.1851
0.193789
0.203049
0.212893
0.223339
0.23441
0.24613
0.258529
0.271637
0.285492
0.300132
0.315602
0.331949
0.349228
0.367494
0.386809
0.407241
0.428864
0.451755
0.476001
0.501694
0.528934
0.557828
0.588494
0.621054
0.655642
0.692404
0.731493
0.773078
0.817334
0.864455
0.914643
0.968121
1.02512
1.0859
1.15072
1.21987
1.29367
1.37245
1.45655
1.54637
1.6423
1.7448
1.85434
1.97142
2.0966
2.23048
2.3737
2.52697
2.69105
2.86678
3.05507
3.25692
3.47345
3.70587
3.95554
4.22397
4.51284
4.82403
5.15967
5.52215
5.9142
6.33889
6.79975
7.30079
7.84661
8.44248
9.09425
9.8088
10.5926
11.455
12.3964
13.4363
14.5181
15.7489
16.6486
18.0056
16.4303
0.123352
0.1287
0.127537
0.129438
0.133886
0.138622
0.143487
0.148939
0.155048
0.161715
0.168911
0.176659
0.184975
0.193867
0.20335
0.213443
0.224169
0.235556
0.247633
0.260436
0.274001
0.288371
0.303593
0.319717
0.336797
0.354896
0.374077
0.394412
0.415977
0.438854
0.463132
0.488908
0.516286
0.545375
0.576299
0.609185
0.644171
0.681406
0.721049
0.763272
0.808258
0.856202
0.907314
0.961821
1.01996
1.082
1.1482
1.21886
1.29431
1.37487
1.46091
1.55283
1.65104
1.75599
1.86816
1.98809
2.11633
2.25349
2.40026
2.55734
2.72552
2.90567
3.09872
3.30572
3.5278
3.76625
4.02246
4.298
4.59464
4.91435
5.25936
5.6322
6.03574
6.47326
6.94856
7.46596
8.03048
8.64791
9.32489
10.0692
10.8889
11.7946
12.7915
13.8979
15.0788
16.4107
17.5356
19.0044
18.1552
0.117838
0.122464
0.121828
0.123558
0.127499
0.131846
0.136388
0.141483
0.147211
0.153497
0.160314
0.16768
0.175613
0.184123
0.193227
0.202945
0.213303
0.224328
0.236053
0.248515
0.261753
0.275811
0.29074
0.306591
0.323421
0.341295
0.36028
0.38045
0.401885
0.424671
0.448899
0.474669
0.502091
0.531278
0.562352
0.59545
0.630713
0.668294
0.708355
0.751074
0.796635
0.845242
0.897109
0.952466
1.01156
1.07465
1.14202
1.21398
1.29083
1.37294
1.46067
1.55442
1.65461
1.76171
1.87621
1.99864
2.12959
2.26968
2.41959
2.58006
2.7519
2.93599
3.1333
3.34491
3.57198
3.81583
4.07791
4.35985
4.66347
4.99084
5.34427
5.72642
6.14031
6.5894
7.07771
7.60987
8.19127
8.82823
9.52805
10.2994
11.1518
12.0973
13.1453
14.3143
15.5875
17.0201
18.3593
19.9565
19.6585
0.111785
0.115661
0.115472
0.117079
0.120559
0.124528
0.128751
0.133499
0.138852
0.144756
0.151189
0.158166
0.165704
0.173817
0.182524
0.191845
0.201808
0.212444
0.223785
0.235871
0.248742
0.262446
0.277035
0.292561
0.309087
0.326678
0.345405
0.365342
0.386575
0.409192
0.433286
0.458963
0.486334
0.515518
0.546641
0.579838
0.615257
0.653056
0.693401
0.736473
0.782462
0.831574
0.88403
0.940063
0.999923
1.06388
1.13222
1.20525
1.2833
1.36672
1.45589
1.55121
1.65312
1.76209
1.87861
2.00325
2.13658
2.27925
2.43195
2.59543
2.77052
2.95814
3.15926
3.37499
3.60652
3.85522
4.12258
4.41028
4.7202
5.05447
5.4155
5.80606
6.22929
6.68883
7.18889
7.73438
8.33103
8.98561
9.70605
10.5018
11.3838
12.3654
13.4596
14.6858
16.0425
17.5696
19.1043
20.8323
21.1907
0.105192
0.108327
0.108496
0.110012
0.11308
0.11668
0.120589
0.124997
0.129978
0.135499
0.141542
0.148119
0.155249
0.162949
0.171238
0.180139
0.189681
0.199896
0.210819
0.222492
0.234956
0.248261
0.26246
0.277612
0.293776
0.311022
0.329424
0.34906
0.370015
0.392383
0.416261
0.441755
0.468979
0.498056
0.529117
0.562299
0.597754
0.635644
0.676137
0.719421
0.765689
0.81515
0.86803
0.924566
0.985015
1.04965
1.11876
1.19266
1.27168
1.35619
1.44656
1.54321
1.64658
1.75715
1.87543
2.00197
2.13738
2.28231
2.43746
2.6036
2.78158
2.97233
3.17685
3.39626
3.63181
3.88487
4.15699
4.44988
4.76548
5.106
5.47391
5.87208
6.30377
6.77278
7.28349
7.84104
8.4515
9.12202
9.8611
10.6789
11.5876
12.6018
13.7375
15.0157
16.4471
18.0624
19.771
21.629
22.6104
0.0980619
0.100497
0.100933
0.102378
0.105077
0.108322
0.111917
0.115989
0.1206
0.125734
0.131378
0.137544
0.144252
0.15152
0.159369
0.167824
0.176915
0.186677
0.197146
0.208364
0.220377
0.233235
0.246994
0.261713
0.277455
0.294292
0.3123
0.331559
0.352157
0.37419
0.397758
0.422971
0.449944
0.478805
0.509687
0.542731
0.578089
0.615931
0.656429
0.699769
0.746151
0.795788
0.848909
0.905757
0.966592
1.03169
1.10135
1.17588
1.25564
1.34097
1.43227
1.52996
1.63448
1.74633
1.86602
1.99411
2.13122
2.278
2.43518
2.60353
2.78392
2.97728
3.18464
3.40715
3.64607
3.90281
4.17893
4.47619
4.7966
5.14238
5.5161
5.92069
6.35952
6.83649
7.35616
7.92387
8.54594
9.22987
9.98464
10.8211
11.7522
12.794
13.965
15.2881
16.7834
18.4786
20.3371
22.3281
23.7787
0.0904
0.0922062
0.092823
0.0942017
0.0965708
0.0994747
0.102758
0.106494
0.110735
0.115477
0.120712
0.126455
0.132724
0.13954
0.146926
0.154908
0.163519
0.172794
0.182771
0.193495
0.205013
0.217376
0.230641
0.24487
0.260131
0.276493
0.294037
0.312845
0.333008
0.354622
0.37779
0.402626
0.429249
0.457786
0.488377
0.521163
0.556301
0.593962
0.634321
0.67757
0.723912
0.773564
0.826758
0.883739
0.944772
1.01014
1.08014
1.1551
1.23536
1.32128
1.41327
1.51175
1.61716
1.73002
1.85083
1.98017
2.11866
2.26697
2.42583
2.59603
2.77844
2.97401
3.1838
3.40896
3.65078
3.91069
4.19028
4.49135
4.81593
5.16629
5.54507
5.95526
6.40032
6.88426
7.41177
7.98836
8.62055
9.31616
10.0846
10.9371
11.8877
12.9533
14.1543
15.5159
17.0649
18.8288
20.8091
22.9216
24.8136
0.0822182
0.0834892
0.0842062
0.0855126
0.0875869
0.0901642
0.0931328
0.0965322
0.100401
0.104743
0.109559
0.114863
0.120675
0.127018
0.133915
0.141397
0.149496
0.158248
0.167695
0.177881
0.188856
0.200673
0.213391
0.227073
0.241787
0.257608
0.274615
0.292894
0.312537
0.333645
0.356322
0.380683
0.406852
0.434955
0.465133
0.497537
0.532326
0.569668
0.609747
0.652756
0.6989
0.7484
0.801492
0.858425
0.919467
0.984905
1.05504
1.13021
1.21074
1.29703
1.38946
1.48847
1.59451
1.70809
1.82974
1.96003
2.09959
2.2491
2.40929
2.58098
2.76503
2.96242
3.17422
3.40159
3.64582
3.90839
4.19091
4.4952
4.82331
5.17758
5.56066
5.97562
6.42599
6.91586
7.45
8.03409
8.67481
9.3802
10.1599
11.0258
11.9923
13.0771
14.3023
15.6944
17.2853
19.1044
21.1762
23.3922
25.5733
0.0735374
0.0743829
0.075129
0.0763475
0.0781544
0.0804189
0.0830712
0.0861287
0.0896188
0.0935522
0.0979357
0.102784
0.108119
0.113965
0.120347
0.127297
0.134849
0.143041
0.151916
0.161519
0.171902
0.183119
0.195232
0.208303
0.222405
0.237612
0.254006
0.271674
0.290712
0.311218
0.333303
0.357082
0.382681
0.410232
0.439874
0.471762
0.506056
0.542932
0.58257
0.625168
0.670936
0.720098
0.77289
0.829566
0.890399
0.955675
1.0257
1.10082
1.18136
1.26772
1.36029
1.45951
1.56585
1.67979
1.8019
1.93273
2.07293
2.22319
2.38423
2.55688
2.74202
2.94063
3.15378
3.38265
3.62854
3.89295
4.17748
4.48399
4.81454
5.17151
5.55756
5.97579
6.42979
6.92365
7.46226
8.05135
8.69771
9.40952
10.1966
11.0711
12.0477
13.1449
14.3854
15.7971
17.4147
19.2707
21.4031
23.7044
26.031
0.064388
0.0649246
0.0656405
0.0667492
0.0683089
0.0702725
0.0726051
0.0753136
0.0784175
0.0819311
0.085867
0.090242
0.0950784
0.100402
0.106241
0.112628
0.119599
0.127193
0.135454
0.14443
0.154172
0.164737
0.176187
0.188587
0.20201
0.216532
0.232238
0.249216
0.267562
0.287379
0.308777
0.331873
0.356797
0.383681
0.412671
0.443918
0.477589
0.513859
0.552912
0.59495
0.640185
0.688842
0.741163
0.797404
0.857839
0.922762
0.992482
1.06733
1.14767
1.23388
1.32636
1.42555
1.53192
1.64597
1.76826
1.89936
2.03991
2.19061
2.35219
2.52549
2.71138
2.91085
3.12499
3.35498
3.60214
3.86796
4.15408
4.46233
4.79483
5.15395
5.54239
5.96327
6.42018
6.91731
7.45956
8.05269
8.7036
9.42052
10.2135
11.0946
12.079
13.1852
14.4365
15.8615
17.4959
19.3743
21.5379
23.8898
26.2273
0.0548124
0.0551521
0.055791
0.056764
0.0580888
0.0597599
0.0617677
0.0641171
0.0668237
0.0699041
0.0733749
0.0772556
0.08157
0.0863453
0.0916114
0.0974024
0.103755
0.110711
0.118314
0.126614
0.135664
0.145521
0.156249
0.167914
0.18059
0.194356
0.209294
0.225498
0.243064
0.262097
0.282709
0.305018
0.329154
0.355254
0.383463
0.41394
0.446848
0.482367
0.520683
0.562002
0.606536
0.654514
0.706181
0.761796
0.821636
0.885996
0.955189
1.02955
1.10945
1.19526
1.28739
1.38629
1.49243
1.60631
1.72849
1.85955
2.00014
2.15095
2.31272
2.4863
2.67256
2.8725
3.08721
3.31789
3.56585
3.8326
4.11977
4.42922
4.76307
5.1237
5.51383
5.93659
6.39559
6.89502
7.43981
8.03575
8.68976
9.41012
10.2068
11.0921
12.0811
13.1923
14.4491
15.8799
17.5199
19.4036
21.5672
23.9155
26.2144
0.0448702
0.0451051
0.0456334
0.0464451
0.0475388
0.0489212
0.0505969
0.0525747
0.0548702
0.0575016
0.0604881
0.063852
0.0676187
0.0718169
0.0764783
0.0816381
0.0873347
0.0936099
0.10051
0.108085
0.116389
0.12548
0.135423
0.146286
0.158143
0.171074
0.185164
0.200506
0.217199
0.235346
0.255065
0.276474
0.299705
0.324892
0.352189
0.38175
0.413747
0.448354
0.485768
0.52619
0.569836
0.616939
0.667745
0.722514
0.781527
0.845081
0.913493
0.987102
1.06627
1.15138
1.24285
1.34112
1.44666
1.55999
1.68166
1.81226
1.95242
2.10286
2.26431
2.43761
2.62365
2.82342
3.038
3.26861
3.51655
3.78332
4.07056
4.38014
4.71416
5.07497
5.4653
5.8883
6.34751
6.84712
7.39203
7.98801
8.64191
9.36194
10.158
11.0422
12.0293
13.1377
14.3899
15.8138
17.4422
19.3079
21.435
23.7295
25.9564
0.0346354
0.0348238
0.0352196
0.0358497
0.0367096
0.0378005
0.039134
0.0407261
0.0425944
0.0447583
0.0472396
0.0500629
0.0532555
0.0568473
0.0608716
0.0653646
0.0703659
0.0759189
0.0820704
0.0888708
0.0963754
0.104645
0.113742
0.123738
0.134706
0.146728
0.15989
0.174287
0.190015
0.207184
0.225909
0.24631
0.26852
0.292681
0.318938
0.347454
0.378398
0.411952
0.448309
0.487675
0.530268
0.576322
0.626085
0.67982
0.737811
0.800356
0.867775
0.940408
1.01862
1.1028
1.19336
1.29074
1.39543
1.50794
1.62881
1.75865
1.89809
2.04784
2.20864
2.38132
2.56678
2.76601
2.98008
3.21021
3.45771
3.72405
4.01089
4.32006
4.65367
5.01408
5.40398
5.82645
6.28507
6.78397
7.328
7.92284
8.57525
9.2933
10.0867
10.9673
11.9494
13.0507
14.2927
15.7019
17.3065
19.1372
21.1954
23.3979
25.3881
0.0241921
0.0243476
0.0245989
0.0250351
0.0256527
0.026442
0.0274195
0.0286091
0.0300313
0.0317069
0.0336596
0.0359161
0.0385056
0.0414596
0.0448124
0.0486015
0.0528673
0.0576538
0.0630086
0.0689839
0.0756351
0.0830218
0.0912098
0.10027
0.110277
0.121312
0.133463
0.146824
0.161496
0.177586
0.19521
0.214493
0.235566
0.25857
0.283658
0.310989
0.340735
0.373082
0.408222
0.446363
0.487725
0.532545
0.581073
0.633573
0.690331
0.751647
0.817845
0.889265
0.966274
1.04926
1.13865
1.23488
1.33842
1.44981
1.56958
1.69834
1.83672
1.98543
2.14522
2.31691
2.5014
2.69967
2.9128
3.142
3.38857
3.65397
3.93986
4.24807
4.58067
4.94001
5.32876
5.74996
6.20713
6.70439
7.24648
7.83899
8.48854
9.20301
9.99186
10.8665
11.8407
12.9314
14.1583
15.5461
17.117
18.8999
20.8626
22.9578
24.6051
0.0136281
0.013719
0.0138249
0.0140636
0.0144244
0.0148944
0.0154983
0.0162667
0.0172219
0.0183855
0.0197839
0.021446
0.0234023
0.0256856
0.0283314
0.0313778
0.0348662
0.0388413
0.0433516
0.0484486
0.0541891
0.0606341
0.0678487
0.0759029
0.0848731
0.0948417
0.105897
0.118132
0.131649
0.146556
0.162971
0.181018
0.20083
0.222549
0.246328
0.272328
0.300723
0.331698
0.365447
0.402182
0.442123
0.485508
0.532589
0.583632
0.638925
0.698769
0.763486
0.833423
0.908945
0.990445
1.07834
1.17308
1.27514
1.38503
1.50331
1.63058
1.76746
1.91467
2.07294
2.24311
2.42606
2.62277
2.83431
3.06187
3.30675
3.5704
3.85445
4.16071
4.49122
4.84829
5.23455
5.65299
6.10709
6.60083
7.13885
7.72659
8.37047
9.07812
9.85859
10.7228
11.6836
12.757
13.9605
15.317
16.84
18.5609
20.4005
22.3839
23.5738
0.0030257
0.00298432
0.00295636
0.00299871
0.00308083
0.00320701
0.00341706
0.00374376
0.00420817
0.00483427
0.00565128
0.00668969
0.00798134
0.0095602
0.0114626
0.0137271
0.0163962
0.0195149
0.0231317
0.027299
0.0320734
0.0375152
0.0436906
0.050671
0.0585318
0.067355
0.0772295
0.0882497
0.100518
0.114142
0.12924
0.145937
0.164367
0.184675
0.207012
0.231539
0.258437
0.287885
0.320084
0.355243
0.393586
0.43535
0.48079
0.530175
0.58379
0.641942
0.704954
0.773171
0.846961
0.926717
1.01286
1.10583
1.20611
1.31422
1.4307
1.55615
1.69121
1.83657
1.99298
2.16125
2.34226
2.53699
2.7465
2.97196
3.21466
3.47604
3.75768
4.06138
4.38914
4.74323
5.12623
5.54106
5.99109
6.48021
7.01291
7.59446
8.23102
8.92986
9.69959
10.5504
11.4944
12.546
13.7201
15.0379
16.5021
18.1498
19.8396
21.7015
22.3325
-0.00754118
-0.00780775
-0.00794457
-0.008096
-0.00832246
-0.00856968
-0.00877635
-0.00891481
-0.00896712
-0.00890673
-0.00870072
-0.00831672
-0.00772214
-0.00688295
-0.00576167
-0.00431918
-0.0025125
-0.00029682
0.00237634
0.00556011
0.00931076
0.0136886
0.0187601
0.0245951
0.0312705
0.0388676
0.0474754
0.0571888
0.0681084
0.080345
0.0940178
0.109249
0.126173
0.144936
0.165692
0.188604
0.213846
0.241606
0.272081
0.305485
0.342041
0.38199
0.425585
0.473095
0.52481
0.581037
0.642098
0.708343
0.780136
0.857872
0.941971
1.03288
1.13108
1.23707
1.35142
1.47471
1.60758
1.75071
1.90484
2.0708
2.24944
2.44173
2.64873
2.87157
3.11155
3.37007
3.64869
3.94918
4.27348
4.62382
5.00271
5.413
5.85796
6.34133
6.86745
7.44137
8.06895
8.75708
9.51379
10.3486
11.2723
12.2981
13.4376
14.7103
16.1056
17.6707
19.1868
20.9197
21.0396
-0.0180074
-0.0186052
-0.0188115
-0.0191559
-0.019729
-0.0203834
-0.021032
-0.0216612
-0.022259
-0.022794
-0.023229
-0.0235316
-0.0236685
-0.0236045
-0.0233025
-0.0227219
-0.0218214
-0.0205556
-0.018875
-0.0167277
-0.0140585
-0.0108064
-0.00690569
-0.00228632
0.0031274
0.00941718
0.0166713
0.0249848
0.0344587
0.0452036
0.0573348
0.0709797
0.086274
0.103361
0.122393
0.143535
0.166967
0.192872
0.221451
0.252915
0.28749
0.325417
0.366952
0.412365
0.461944
0.515998
0.574851
0.63885
0.708364
0.783786
0.865534
0.954055
1.04982
1.15335
1.26519
1.38592
1.51617
1.65663
1.80803
1.97117
2.14691
2.33621
2.54009
2.75968
2.99625
3.25116
3.52596
3.82234
4.14223
4.48778
4.8614
5.26587
5.70432
6.18035
6.69809
7.26234
7.87861
8.55334
9.29394
10.1091
11.0083
12.0033
13.1018
14.3228
15.6393
17.1159
18.4406
20.0544
19.5439
-0.028315
-0.0293525
-0.0295761
-0.030118
-0.0310842
-0.032183
-0.0332996
-0.0344476
-0.0356219
-0.0367834
-0.0378915
-0.0389132
-0.0398158
-0.040564
-0.0411197
-0.0414423
-0.0414911
-0.0412213
-0.0405826
-0.0395262
-0.0379956
-0.0359298
-0.0332654
-0.0299321
-0.0258551
-0.0209536
-0.0151382
-0.00831731
-0.000387424
0.00875943
0.0192417
0.0311836
0.0447204
0.0599955
0.0771673
0.0963977
0.117861
0.141748
0.168256
0.197601
0.230007
0.265718
0.304987
0.348088
0.395309
0.446957
0.503361
0.564863
0.631837
0.704672
0.783786
0.869627
0.962665
1.06341
1.1724
1.29023
1.41752
1.55494
1.70322
1.86314
2.03556
2.22142
2.42171
2.63757
2.8702
3.12095
3.39133
3.68297
3.99776
4.33776
4.70531
5.10306
5.53403
6.00161
6.50974
7.06289
7.66625
8.32574
9.04806
9.84107
10.7126
11.6733
12.7264
13.8909
15.1213
16.5054
17.6252
19.123
17.9738
-0.0384139
-0.0399923
-0.0401688
-0.0409213
-0.0423351
-0.0439167
-0.0455295
-0.0472267
-0.0490102
-0.0508313
-0.0526452
-0.0544206
-0.0561242
-0.0577212
-0.059173
-0.0604404
-0.0614824
-0.0622546
-0.0627096
-0.0627963
-0.0624616
-0.0616442
-0.0602818
-0.0583065
-0.0556427
-0.0522102
-0.0479229
-0.042687
-0.0364011
-0.0289587
-0.0202409
-0.0101228
0.00152972
0.0148609
0.0300254
0.0471876
0.066524
0.0882243
0.112487
0.139525
0.169568
0.202856
0.239646
0.280211
0.324839
0.373841
0.427539
0.486283
0.55044
0.620403
0.696587
0.779436
0.869422
0.967048
1.07286
1.18742
1.31137
1.44536
1.5901
1.74639
1.91504
2.09698
2.2932
2.50478
2.73292
2.97893
3.24426
3.5305
3.83947
4.17315
4.53378
4.92389
5.34633
5.80435
6.3016
6.84228
7.43111
8.07353
8.77547
9.54384
10.3849
11.3079
12.3112
13.4149
14.552
15.8394
16.7439
18.1254
16.5409
-0.0482591
-0.0504625
-0.0505191
-0.0515061
-0.0534284
-0.0555321
-0.0576701
-0.0599495
-0.0623775
-0.0648916
-0.067445
-0.0700075
-0.0725478
-0.0750308
-0.0774173
-0.0796703
-0.0817481
-0.083608
-0.0852051
-0.0864884
-0.0874054
-0.0878971
-0.0879037
-0.0873559
-0.0861803
-0.0842986
-0.0816254
-0.0780698
-0.0735278
-0.0678961
-0.0610555
-0.0528821
-0.0432441