/*--------------------------------*- C++ -*----------------------------------*\
  =========                 |
  \\      /  F ield         | OpenFOAM: The Open Source CFD Toolbox
   \\    /   O peration     | Website:  https://openfoam.org
    \\  /    A nd           | Version:  11
     \\/     M anipulation  |
\*---------------------------------------------------------------------------*/
FoamFile
{
    format      ascii;
    class       surfaceScalarField;
    location    "470";
    object      phi;
}
// * * * * * * * * * * * * * * * * * * * * * * * * * * * * * * * * * * * * * //

dimensions      [0 3 -1 0 0 0 0];

internalField   nonuniform List<scalar> 
62845
(
48152.7
-552789
554273
45151.9
-525584
528585
43290
-499127
500989
40939.8
-474200
476550
39018.7
-450386
452308
36995.9
-427828
429850
35200.3
-406343
408138
33425.1
-385950
387725
31772.7
-366552
368204
30175.7
-348139
349736
28685.2
-330648
332139
27269.6
-314034
315449
25904.2
-298229
299594
24636
-283254
284523
23398.5
-268989
270227
22260.9
-255479
256617
21152.3
-242605
243714
20100.5
-230413
231464
19120.9
-218827
219807
18183.7
-207804
208742
17274.4
-197345
198254
16436.9
-187433
188270
15627.1
-177980
178790
14859.7
-169031
169799
14134.5
-160527
161252
13437
-152437
153135
12781.7
-144777
145433
12153.8
-137488
138115
11568
-130583
131169
10980.3
-123990
124577
10449.2
-117766
118297
9930.76
-111839
112358
9439.55
-106223
106714
8975.53
-100873
101337
8524.09
-95803.8
96255.3
8099.79
-90986.3
91410.6
7688.05
-86419.9
86831.6
7303.44
-82075.1
82459.8
6931.42
-77950.3
78322.4
6574.93
-74036.4
74392.9
6234.02
-70320
70660.9
5908.75
-66790.6
67115.8
5596.29
-63437.7
63750.2
5298.17
-60255.3
60553.4
5011.61
-57231.5
57518.1
4738.16
-54360.2
54633.6
4473.59
-51632.4
51897
4222.39
-49043.7
49294.9
3980.35
-46582
46824.1
3749.06
-44245.9
44477.2
3527.21
-42025
42246.9
3314.96
-39916.2
40128.5
3109.56
-37910.7
38116.1
2915.5
-36008.4
36202.4
2728.57
-34198.9
34385.9
2548.93
-32478
32657.6
2378.14
-30845.4
31016.1
2213.44
-29292.4
29457.1
2057.85
-27816.1
27971.6
1908.58
-26413.5
26562.7
1765.75
-25080.2
25223
1629.46
-23811.9
23948.2
1499.8
-22607.2
22736.8
1376.85
-21461.6
21584.5
1259.25
-20372.2
20489.8
1148.51
-19336.2
19447
1041.84
-18350.7
18457.4
940.719
-17414.2
17515.4
846.646
-16525.4
16619.4
756.819
-15676.9
15766.7
671.292
-14871.8
14957.3
591.553
-14105.6
14185.4
517.633
-13378.5
13452.5
446.763
-12684.8
12755.7
381.85
-12026
12090.9
320.422
-11400.2
11461.6
263.972
-10804.8
10861.2
212.026
-10239.1
10291.1
164.671
-9701.9
9749.25
121.678
-9191.68
9234.67
83.8662
-8708.34
8746.15
49.5607
-8250.78
8285.09
23.3555
-7816.93
7843.13
-2.58829
-7417.24
7443.18
-12.5695
-7019.62
7029.61
-31.0474
-6714.32
6732.8
-18.1579
-6297.87
6284.98
-39.6152
-6278.02
6299.48
-5608.95
5569.34
75051.6
-549128
71210.8
-521743
67701.7
-495618
64289.4
-470788
61080.6
-447178
57998.2
-424745
55096
-403440
52325.5
-383180
49694.6
-363921
47204.5
-345649
44834.3
-328278
42578.9
-311778
40456
-296106
38419.6
-281218
36500.1
-267070
34667.6
-253646
32936.9
-240875
31278.4
-228754
29706.9
-217255
28222.1
-206320
26824.1
-195947
25468.9
-186077
24200.3
-176712
22974.3
-167805
21820.2
-159373
20737.7
-151355
19697.8
-143737
18700.2
-136490
17745
-129628
16861.2
-123106
16019.6
-116925
15205.5
-111025
14419
-105436
13689.1
-100143
12986.7
-95101.4
12326.2
-90325.8
11693.2
-85786.8
11087.6
-81469.5
10505
-77367.8
9955.7
-73487.1
9429.52
-69793.8
8927.96
-66289
8449.63
-62959.4
7991.7
-59797.4
7554.26
-56794.1
7137.39
-53943.3
6739.76
-51234.8
6358.58
-48662.5
5995.41
-46218.9
5647.49
-43898
5316.38
-41693.9
4999.33
-39599.2
4697.9
-37609.3
4407.89
-35718.4
4130.87
-33921.9
3868.4
-32215.5
3616.28
-30593.2
3376.06
-29052.1
3146.4
-27586.4
2927.41
-26194.5
2719.19
-24872
2520.38
-23613.1
2332.5
-22419.3
2151.33
-21280.4
1979.8
-20200.7
1817.99
-19174.4
1664.52
-18197.2
1518.02
-17267.7
1378.53
-16385.9
1246.13
-15544.5
1122.26
-14747.9
1005.56
-13988.9
893.261
-13266.2
788.237
-12579.8
690.529
-11928.3
598.389
-11308
512.029
-10718.4
431.558
-10158.7
356.824
-9627.16
287.78
-9122.63
224.8
-8645.36
167.19
-8193.17
117.247
-7766.98
70.4958
-7370.49
38.0412
-6987.17
1.14176
-6677.42
-5.56677
-6291.16
-45.6377
-6237.95
-5654.59
102035
-543795
96900.4
-516608
92041.8
-490759
87401
-466147
83016.1
-442793
78834.8
-420564
74858.1
-399464
71085.9
-379408
67504.2
-360339
64098.2
-342243
60868.2
-325048
57799.3
-308709
54891.4
-293198
52115.2
-278442
49485.3
-264440
46986.8
-251148
44619.6
-238507
42383.8
-226518
40235.1
-215107
38202.9
-204287
36257.8
-194001
34428.9
-184248
32686.9
-174970
31046.3
-166165
29463.2
-157790
27966.8
-149859
26542.3
-142313
25204.3
-135152
23923.5
-128347
22699.9
-121882
21518.7
-115743
20423.7
-109930
19385.7
-104398
18375.4
-99132.6
17436.5
-94162.5
16525.4
-89414.7
15656.5
-84918
14832.8
-80645.8
14058.6
-76593.6
13312.1
-72740.6
12603.5
-69085.2
11927
-65612.6
11281.2
-62313.7
10667.8
-59183.9
10082.2
-56208.5
9523.26
-53384.4
8990.97
-50702.5
8482.55
-48154.1
7998.11
-45734.4
7534.84
-43434.7
7092.86
-41251.9
6672.28
-39178.6
6270.32
-37207.3
5888.53
-35336.6
5522.7
-33556.1
5174.37
-31867.2
4843.65
-30262.5
4526.32
-28734.8
4225.35
-27285.4
3939.39
-25908.5
3664.21
-24596.8
3404.21
-23353.1
3155.16
-22170.3
2921.42
-21046.7
2697.33
-19976.6
2482.93
-18960
2279.74
-17994.1
2087.8
-17075.8
1904.3
-16202.4
1732.14
-15372.3
1568.5
-14584.2
1412.03
-13832.5
1265.59
-13119.8
1127.81
-12442
996.095
-11796.6
872.456
-11184.4
756.671
-10602.6
647.876
-10049.9
546.165
-9525.45
451.547
-9028.02
363.784
-8557.6
282.709
-8112.1
209.774
-7694.05
142.019
-7302.73
87.7195
-6932.87
31.9061
-6621.61
6.4138
-6265.67
-49.6546
-6181.88
-5704.25
128822
-536980
122329
-510115
116157
-484587
110310
-460301
104724
-437207
99446.2
-415286
94432.3
-394450
89653.3
-374629
85138.5
-355824
80829.6
-337934
76741
-320959
72872.7
-304841
69165.8
-289492
65679
-274955
62353.5
-261114
59203.7
-247998
56200.4
-235504
53343.2
-223661
50646.9
-212410
48082
-201722
45633.7
-191553
43316.5
-181931
41115.9
-172769
39016.9
-164066
37034.2
-155807
35138.4
-147963
33344.1
-140518
31636.5
-133444
30015.6
-126726
28466.8
-120333
27004.4
-114281
25613.9
-108540
24280.7
-103065
23019.2
-97871.1
21814.8
-92958.2
20682.1
-88282
19591.9
-83827.8
18558.8
-79612.7
17574
-75608.7
16639
-71805.6
15746.5
-68192.7
14896.5
-64762.6
14089.1
-61506.3
13317.1
-58411.9
12583.4
-55474.8
11885.2
-52686.2
11218.2
-50035.5
10583.9
-47519.8
9978.08
-45128.6
9402.31
-42859
8853.72
-40703.4
8329.56
-38654.4
7831.34
-36709.1
7354.84
-34860.1
6903.04
-33104.3
6470.27
-31434.4
6058.04
-29850.3
5667.9
-28344.7
5294.16
-26911.7
4938.35
-25552.7
4601.97
-24260.4
4279.37
-23030.5
3973.45
-21864.3
3680.02
-20753.2
3403.38
-19700
3140.76
-18697.4
2890.76
-17744.1
2652.02
-16837
2427.41
-15977.8
2212.7
-15157.6
2009.37
-14380.9
1817.43
-13640.5
1634.13
-12936.5
1460.91
-12268.8
1298.61
-11634.3
1144.8
-11030.6
999.537
-10457.4
862.908
-9913.25
734.57
-9397.11
614.283
-8907.73
502.226
-8445.54
397.816
-8007.69
302.264
-7598.5
213.382
-7213.85
137.482
-6856.97
62.9367
-6547.06
18.1859
-6220.92
-53.4
-6110.3
-5757.65
155245
-528723
147426
-502296
139975
-477135
132909
-453235
126211
-430508
119821
-408896
113756
-388384
108014
-368887
102552
-350362
97369.4
-332752
92451.8
-316042
87754.9
-300144
83322.6
-285059
79096
-270729
75089.7
-257108
71274.2
-244183
67664
-231894
64229.7
-220227
60956.5
-209137
57858.9
-198625
54922.2
-188616
52116.9
-179126
49457.6
-170110
46944.2
-161552
44547.4
-153410
42266.9
-145682
40102.8
-138354
38040.4
-131382
36079.4
-124765
34220
-118474
32461.9
-112523
30761.4
-106839
29176.7
-101480
27664
-96358.4
26208.7
-91502.9
24825.3
-86898.6
23528.4
-82530.8
22284.4
-78368.7
21102.1
-74426.4
19975.6
-70679.1
18903.5
-67120.6
17884.3
-63743.4
16913.8
-60535.7
15990.4
-57488.5
15109.9
-54594.3
14272.4
-51848.6
13474.9
-49238.1
12714.7
-46759.6
11991.9
-44405.8
11303.5
-42170.6
10646.8
-40046.7
10021.9
-38029.5
9425.88
-36113.2
8860.38
-34294.6
8319.68
-32563.6
7806.72
-30921.4
7317.27
-29360.8
6849.97
-27877.4
6407.75
-26469.5
5984.95
-25129.9
5583.06
-23858.5
5200.71
-22648.2
4836.52
-21500.2
4490.55
-20407.3
4161.42
-19370.8
3847.75
-18383.7
3550.98
-17447.3
3269.74
-16555.8
2999.83
-15707.8
2745.5
-14903.3
2503.96
-14139.4
2273.87
-13410.4
2057.99
-12720.6
1852.2
-12063
1657.38
-11439.5
1473.14
-10846.4
1299.4
-10283.6
1135.26
-9749.11
980.928
-9242.78
835.888
-8762.69
699.878
-8309.53
572.946
-7880.76
455.494
-7481.05
346.257
-7104.61
250.159
-6760.87
157.325
-6454.23
94.3057
-6157.9
8.37679
-6024.37
-5749.27
181271
-519086
172116
-493141
163433
-468452
155166
-444968
147326
-422668
139885
-401455
132812
-381312
126094
-362168
119699
-343968
113644
-326696
107883
-310281
102431
-294692
97229.2
-279858
92307
-265806
87620.1
-252421
83168.4
-239731
78936.9
-227662
74925.6
-216215
71119.6
-205331
67489.5
-194995
64049.8
-185177
60785.8
-175862
57682.7
-167007
54725.7
-158595
51914.8
-150599
49264.4
-143032
46716.1
-135806
44313.4
-128979
42027.1
-122479
39871.7
-116319
37788.8
-110440
35851.2
-104901
33971.4
-99600.3
32193
-94580
30515.9
-89825.8
28911
-85293.7
27378.2
-80998.1
25933.6
-76924
24552.3
-73045.1
23240.1
-69366.9
21992.8
-65873.2
20804.4
-62555.1
19673.6
-59404.9
18598.9
-56413.8
17575.9
-53571.4
16600.5
-50873.1
15673.9
-48311.6
14792.1
-45877.7
13952.1
-43565.7
13151
-41369.5
12390.5
-39286.1
11666.2
-37305.2
10975.3
-35422.2
10317.8
-33637.1
9693.9
-31939.7
9097.83
-30325.4
8531.1
-28794.1
7992.34
-27338.6
7478.72
-25955.9
6990.32
-24641.5
6524.32
-23392.6
6083.62
-22207.5
5662.57
-21079.1
5264.03
-20008.7
4882.38
-18989.2
4521.9
-18023.2
4176.95
-17102.3
3850.39
-16229.3
3540.82
-15398.3
3246.86
-14609.3
2965.74
-13858.3
2701.64
-13146.3
2450.4
-12469.4
2212.06
-11824.7
1985.55
-11212.9
1771.71
-10632.5
1569.44
-10081.4
1378.44
-9558.1
1198.19
-9062.54
1028.45
-8592.94
868.909
-8149.99
719.397
-7731.25
580.244
-7341.89
450.361
-6974.73
333.815
-6644.33
222.626
-6343.04
139.868
-6075.14
39.2989
-5923.8
-5709.97
206795
-508105
196338
-482684
186412
-458526
177005
-435561
168041
-413704
159548
-392962
151469
-373233
143804
-354502
136536
-336700
129608
-319768
123048
-303721
116797
-288442
110871
-273931
105238
-260174
99900.6
-247083
94812.8
-234643
89989.5
-222839
85401.3
-211627
81048.1
-200978
76914.9
-190862
73001.8
-181264
69264.5
-172125
65717.7
-163460
62346.5
-155224
59150.9
-147403
56101.5
-139982
53212.7
-132917
50469.9
-126237
47858.4
-119867
45378
-113838
43028.7
-108091
40781.2
-102654
38650
-97469.1
36635.1
-92565.1
34707.2
-87897.9
32880.8
-83467.4
31142.8
-79260.1
29484.4
-75265.7
27912.9
-71473.6
26418
-67872.1
24995.4
-64450.6
23642.2
-61201.8
22355.4
-58118.1
21130.8
-55189.1
19965.3
-52406
18857.7
-49765.5
17802.1
-47256
16798.6
-44874.2
15842.8
-42610
14934.8
-40461.6
14069
-38420.3
13246.7
-36482.9
12463.7
-34639.2
11718.6
-32892
11008.5
-31229.6
10333.6
-29650.5
9691.02
-28151.5
9079.35
-26726.9
8497.2
-25373.7
7944.62
-24088.9
7418.79
-22866.7
6916.91
-21705.6
6440.42
-20602.6
5987.92
-19556.2
5558.03
-18559.3
5146.54
-17611.8
4759.08
-16714.9
4388.66
-15858.8
4038.06
-15047.7
3703.15
-14274.4
3388.05
-13543.2
3085.87
-12844.1
2800.74
-12184.3
2529.8
-11553.7
2273.69
-10956.8
2030.82
-10389.6
1800.66
-9851.22
1583.24
-9340.68
1377.53
-8856.83
1183.48
-8398.89
1000.64
-7967.16
828.855
-7559.46
667.98
-7181.02
517.674
-6824.42
380.472
-6507.12
250.455
-6213.02
147.243
-5971.93
32.1218
-5808.68
-5677.85
231775
-495796
220065
-470974
208942
-447404
198367
-424986
188338
-403675
178810
-383435
169755
-364178
161158
-345905
152988
-328530
145232
-312011
137858
-296347
130868
-281452
124232
-267295
117905
-253847
111901
-241080
106222
-228963
100807
-217424
95671.3
-206492
90785.6
-196092
86149.5
-186226
81733.8
-176848
77552.7
-167944
73576.9
-159484
69791.7
-151439
66211.5
-143823
62792.3
-136563
59563.3
-129688
56480.6
-123154
53558.5
-116945
50782.4
-111062
48137.6
-105446
45624
-100140
43241.5
-95086.6
40975.6
-90299.1
38811.4
-85733.8
36763.6
-81419.6
34816.1
-77312.5
32964.4
-73414
31202.6
-69711.9
29526.5
-66195.9
27934.5
-62858.6
26419.3
-59686.6
24979.5
-56678.3
23607.8
-53817.4
22305.6
-51103.8
21065.8
-48525.7
19885.4
-46075.6
18763.1
-43751.9
17697.3
-41544.2
16681
-39445.3
15715.5
-37454.8
14793.8
-35561.1
13920.1
-33765.5
13087.3
-32059.3
12295.5
-30437.8
11543.2
-28898.1
10826.1
-27434.5
10144.4
-26045.2
9495.16
-24724.5
8878.41
-23472.2
8291.34
-22279.7
7732.58
-21146.8
7202.1
-20072.1
6697.1
-19051.2
6216.21
-18078.4
5760.81
-17156.3
5326.7
-16280.8
4915.28
-15447.4
4522.37
-14654.8
4152.12
-13904.2
3797.61
-13188.6
3462.98
-12509.5
3144.06
-11865.3
2842.65
-11252.3
2556.28
-10670.5
2284.82
-10118.2
2027.67
-9594.07
1784
-9097.01
1553.71
-8626.54
1335.94
-8181.12
1130.47
-7761.68
936.927
-7365.92
754.976
-6999.07
584.327
-6653.78
426.936
-6349.73
278.415
-6064.5
154.062
-5847.57
24.8632
-5679.48
-5652.99
256112
-482176
243178
-458041
230890
-435116
219222
-413318
208144
-392597
197597
-372888
187611
-354191
178097
-336391
169070
-319503
160515
-303456
152359
-288191
144629
-273722
137283
-259948
130305
-246869
123681
-234455
117380
-222663
111403
-211447
105720
-200809
100332
-190704
95193.1
-181087
90333.4
-171988
85694
-163304
81304
-155094
77134.1
-147269
73154.8
-139844
69395.3
-132804
65811.5
-126104
62418
-119760
59170.8
-113698
56099.1
-107990
53188
-102535
50408.4
-97360.8
47760.2
-92438.4
45257.8
-87796.7
42886.6
-83362.5
40614.5
-79147.4
38461.7
-75159.8
36415.3
-71367.5
34470.6
-67767.2
32620.5
-64345.8
30861.9
-61100.1
29190.6
-58015.3
27599.1
-55086.9
26087.6
-52305.9
24648.7
-49664.9
23279.6
-47156.6
21980.2
-44776.2
20741.9
-42513.6
19564.7
-40367
18445.7
-38326.3
17380.6
-36389.7
16368
-34548.5
15403.6
-32801.2
14487.4
-31143.1
13615.2
-29565.6
12784
-28067
11995.4
-26645.8
11245
-25294.8
10531.5
-24011
9852.04
-22792.7
9206.59
-21634.2
8592.34
-20532.6
8007.89
-19487.7
7451.84
-18495.2
6925.57
-17552.1
6423.48
-16654.3
5945.55
-15802.9
5491.78
-14993.6
5062.16
-14225.1
4652.5
-13494.5
4264.16
-12800.3
3895.75
-12141.1
3544.51
-11514.1
3211.92
-10919.7
2896.6
-10355.1
2597.3
-9818.87
2313.76
-9310.53
2045.15
-8828.4
1790.7
-8372.09
1550.14
-7940.56
1322.76
-7534.3
1108.19
-7151.36
906.2
-6797.07
716.51
-6464.09
540.436
-6173.66
374.498
-5898.56
231.934
-5705.01
87.5319
-5535.08
-5565.45
279806
-467305
265680
-443914
252257
-421693
239497
-400558
227386
-380486
215880
-361381
204949
-343260
194578
-326020
184709
-309634
175341
-294088
166460
-279309
157992
-265254
149965
-251922
142352
-239256
135106
-227210
128214
-215771
121690
-204923
115475
-194594
109584
-184812
103987
-175490
98654
-166655
93600.4
-158251
88796.4
-150290
84227.3
-142700
79907.6
-135524
75778.6
-128675
71869.4
-122195
68136.1
-116027
64622.4
-110184
61255.1
-104623
58063.3
-99343.2
55032.3
-94329.9
52162.1
-89568.2
49408.8
-85043.4
46801.5
-80755.2
44340
-76686
41988
-72807.8
39754.1
-69133.5
37628
-65641.1
35608.3
-62326.1
33687.6
-59179.4
31861.5
-56189.2
30125.7
-53351.1
28475.8
-50656
26906
-48095.1
25414.8
-45665.3
23995
-43356.4
22645
-41163.6
21360.7
-39082.7
20140.5
-37106.1
18978.6
-35227.9
17873.8
-33443.7
16824.4
-31751.8
15824.8
-30143.5
14873.6
-28614.3
13970.7
-27164.1
13111.9
-25787.1
12292.9
-24475.9
11516.6
-23234.6
10775.8
-22051.9
10072
-20930.4
9405.09
-19865.7
8769.51
-18852.1
8163.83
-17889.5
7589.43
-16977.7
7043.48
-16108.3
6524.57
-15283.9
6031.28
-14500.4
5562.21
-13756.1
5115.95
-13048.3
4692.46
-12376.8
4290.33
-11739
3909.55
-11133.3
3547.32
-10557.5
3203.5
-10011.3
2877.51
-9492.88
2568.11
-9001.14
2275.01
-8535.3
1997.24
-8094.32
1734.22
-7677.54
1485.2
-7285.27
1250.16
-6916.32
1028.31
-6575.23
819.501
-6255.27
624.461
-5978.62
440.982
-5715.09
280.42
-5544.45
118.953
-5373.61
-5446.5
302741
-451227
287467
-428640
272940
-407166
259149
-386767
246035
-367372
233584
-348931
221753
-331429
210511
-314779
199859
-298982
189708
-283938
180074
-269675
170941
-256121
162249
-243231
153986
-230992
146149
-219373
138710
-208332
131639
-197852
124921
-187876
118527
-178418
112472
-169434
106710
-160894
101242
-152783
96024.6
-145072
91100.4
-137776
86396.5
-130820
81942
-124220
77707.6
-117961
73693
-112012
69854.5
-106346
66220.9
-100990
62763.1
-95885.4
59481
-91047.7
56374.3
-86461.5
53413.9
-82083
50598.2
-77939.5
47915.5
-74003.3
45371.5
-70263.8
42953.1
-66715.1
40654.4
-63342.4
38470.9
-60142.6
36392.5
-57100.9
34419
-54215.8
32540.4
-51472.4
30755.1
-48870.7
29058.7
-46398.7
27445.4
-44052.1
25910.9
-41821.9
24452.3
-39705
23065.2
-37695.5
21745.2
-35786.1
20491
-33973.7
19298.2
-32250.8
18163.9
-30617.5
17083.8
-29063.4
16057.9
-27588.4
15081.9
-26188.1
14153
-24858.1
13272.5
-23595.4
12432
-22394.1
11634.2
-21254.1
10874.9
-20171.1
10152.7
-19143.5
9467.48
-18166.9
8816.44
-17238.4
8194
-16355.3
7605.69
-15520
7045.89
-14724.2
6513.21
-13967.7
6006.21
-13249.1
5526.22
-12568.3
5070.46
-11921.1
4637.48
-11306
4224.7
-10720.5
3833.81
-10166.6
3462.6
-9640.11
3110.47
-9140.75
2776.31
-8666.97
2459.39
-8218.38
2158.9
-7793.83
1874.13
-7392.77
1604.51
-7015.65
1349.28
-6661.09
1107.92
-6333.87
880.326
-6027.68
666.592
-5764.89
465.056
-5513.55
284.839
-5364.23
107.166
-5195.94
-5339.33
324890
-433957
308483
-412233
292911
-391594
278103
-371959
264031
-353301
250681
-335580
237979
-318727
225926
-302725
214462
-287519
203588
-273064
193245
-259332
183432
-246308
174105
-233905
165251
-222137
156838
-210960
148837
-200331
141234
-190250
134029
-180671
127176
-171566
120662
-162920
114472
-154703
108605
-146916
103032
-139499
97723.9
-132467
92679.8
-125776
87900
-119441
83355.1
-113416
79015.6
-107673
74925.3
-102255
71025.7
-97089.9
67316.5
-92176.3
63797.8
-87528.9
60440.2
-83103.9
57264.1
-78906.8
54241.6
-74917
51368.2
-71130
48639.7
-67535.2
46044.1
-64119.6
43577.2
-60875.5
41232.9
-57798.4
39004.1
-54872.1
36884.7
-52096.5
34873.4
-49461.1
32958.5
-46955.8
31137
-44577.3
29406.1
-42321.1
27761.3
-40177.1
26196.9
-38140.6
24709.9
-36208.5
23296
-34372.2
21949.4
-32627.1
20671.5
-30973
19455.1
-29401.1
18298.9
-27907.1
17199.8
-26489.4
16155.1
-25143.4
15160.4
-23863.4
14214.2
-22649.2
13315.2
-21495.1
12461.9
-20400.8
11650
-19359.2
10876.7
-18370.1
10141.9
-17432.1
9442.89
-16539.4
8780.86
-15693.3
8148.88
-14888
7548.34
-14123.6
6979.12
-13398.4
6438.44
-12708.4
5923.49
-12053.3
5434.22
-11431.8
4969.75
-10841.5
4529.47
-10280.3
4110.74
-9747.9
3713.36
-9242.74
3335.96
-8763.35
2977.88
-8308.89
2638.15
-7878.65
2315.9
-7471.57
2010.28
-7087.15
1720.58
-6725.96
1446.27
-6386.78
1186.41
-6074
940.665
-5781.93
708.616
-5532.84
489.891
-5294.83
289.173
-5163.51
95.4031
-5002.17
-5243.93
346195
-415583
328728
-394767
312111
-374977
296346
-356194
281361
-338315
267127
-321346
253599
-305199
240764
-289890
228547
-275302
216965
-261481
205957
-248324
195480
-235831
185548
-223973
176117
-212706
167143
-201986
158639
-191828
150549
-182159
142856
-172978
135545
-164256
128617
-155992
122028
-148114
115762
-140650
109819
-133557
104171
-126819
98801.1
-120407
93696.1
-114336
88855.3
-108575
84264.1
-103082
79878.4
-97869.7
75712.6
-92924.1
71781.4
-88245.1
68026.2
-83773.7
64455.6
-79533.3
61065.2
-75516.4
57844.7
-71696.5
54785.1
-68070.4
51876.3
-64626.5
49110.9
-61354.2
46485.9
-58250.4
43986.7
-55299.1
41614.6
-52500
39358.1
-49839.9
37212.7
-47315.7
35173.9
-44917
33237.5
-42640.8
31394.6
-40478.3
29642.4
-38424.8
27977.9
-36476
26393.8
-34624.5
24887.4
-32865.7
23457
-31196.7
22096.9
-29612.9
20802.7
-28107
19571.7
-26676.1
18402.3
-25319.9
17290.1
-24031.3
16232.4
-22805.7
15227.6
-21644.5
14271.5
-20539
13361.2
-19490.5
12496.7
-18494.7
11676.5
-17549.9
10895
-16650.6
10152
-15796.4
9446.23
-14987.5
8776.14
-14217.9
8138.89
-13486.4
7533.12
-12792.7
6957.34
-12132.6
6410.12
-11506.1
5890.04
-10911.7
5396.61
-10348.1
4927.71
-9811.37
4482.35
-9302.53
4059.48
-8819.87
3657.95
-8361.82
3277.03
-7927.98
2915.33
-7516.95
2572.18
-7128.42
2246.76
-6761.74
1938.01
-6417.21
1645.37
-6094.14
1367.94
-5796.57
1105.65
-5519.64
857.488
-5284.68
623.493
-5060.83
407.392
-4947.41
199.647
-4794.42
-5044.28
366582
-396106
348086
-376271
330512
-357403
313805
-339487
297937
-322447
282862
-306271
268553
-290890
254937
-276273
242027
-262393
229736
-249190
218079
-236667
207011
-224763
196489
-213450
186482
-202699
176991
-192495
167956
-182794
159392
-173595
151256
-164841
143531
-156531
136175
-148636
129201
-141140
122566
-134015
116268
-127259
110280
-120830
104600
-114727
99198.8
-108935
94047.8
-103424
89175.7
-98209.6
84553.1
-93247.1
80150.7
-88521.7
75953.8
-84048.1
71984.1
-79804.1
68212.4
-75761.6
64623.9
-71927.9
61214.2
-68286.7
57972.9
-64829.2
54892.8
-61546.3
51966.3
-58427.7
49183.4
-55467.5
46539.5
-52655.2
44025.8
-49986.4
41638
-47452.1
39367.2
-45044.9
37209.1
-42758.9
35156.3
-40588.1
33207.4
-38529.4
31353.6
-36571.1
29590.6
-34713
27913.9
-32947.8
26322.2
-31274
24808.1
-29682.6
23367.3
-28172.1
21998.4
-26738.1
20698.4
-25376.1
19461.5
-24083.1
18283.5
-22853.3
17165.7
-21687.9
16101.1
-20579.8
15090.8
-19528.8
14130.8
-18530.5
13216.6
-17580.5
12346.8
-16680.2
11521.4
-15825.2
10737.5
-15012.5
9990.88
-14240.8
9281.44
-13508.5
8607.77
-12812.7
7967
-12151.9
7359.07
-11524.7
6781.16
-10928.2
6232.36
-10362.9
5709.9
-9825.65
5214.1
-9315.57
4743.36
-8831.8
4296.27
-8372.77
3871.79
-7937.34
3468.62
-7524.81
3086.11
-7134.44
2722.85
-6765.17
2378.08
-6416.96
2050.95
-6090.08
1740.57
-5783.76
1445.8
-5501.8
1166.54
-5240.37
901.442
-5019.58
650.792
-4810.18
416.668
-4713.29
191.043
-4568.8
-4853.24
386022
-375628
366526
-356775
348026
-338903
330436
-321897
313728
-305739
297858
-290402
282783
-275815
268459
-261949
254842
-248776
241917
-236265
229640
-224390
217967
-213090
206884
-202367
196360
-192175
186352
-182487
176859
-173301
167823
-164559
159244
-156262
151105
-148393
143365
-140895
136007
-133782
129031
-127039
122394
-120622
116095
-114531
110104
-108737
104408
-103238
99019.8
-98036.1
93881.6
-93071.4
88993.1
-88358.6
84354.2
-83882.9
79957.4
-79651.3
75767.5
-75614.2
71790.4
-71784.4
68009.7
-68147.3
64418.2
-64695.2
61005.5
-61416.5
57761.4
-58302.2
54678.4
-55344.8
51749.2
-52538.3
48965.1
-49871.1
46320
-47341.4
43803.9
-44935.9
41413.7
-42654.7
39140.6
-40485.8
36981.7
-38429.2
34928.2
-36475.9
32975.8
-34618.7
31121.5
-32858.7
29359.5
-31185.8
27682.5
-29597
26089.1
-28089.1
24573.5
-26656.4
23132.6
-25297.2
21763.7
-24007.2
20461
-22780.3
19224.3
-21616.6
18048
-20511.6
16929.2
-19461
15866.4
-18465.9
14855.2
-17519.3
13894.3
-16619.5
12980.7
-15766.6
12112.9
-14957.4
11288.2
-14187.8
10503.7
-13456.3
9757.81
-12762.6
9049.18
-12104.1
8376.28
-11479
7736.37
-10884.8
7128.21
-10320
6550.37
-9785.06
6001.66
-9276.94
5480.61
-8794.52
4985.54
-8336.73
4515.4
-7902.63
4068.98
-7490.92
3645.13
-7100.96
3242.51
-6731.82
2860.34
-6382.99
2497.55
-6054.17
2152.89
-5745.42
1825.75
-5456.62
1514.78
-5190.83
1219.61
-4945.2
938.392
-4738.37
671.888
-4543.68
419.008
-4460.41
177.092
-4326.88
-4676.15
404429
-354135
384036
-336381
364639
-319506
346225
-303483
328722
-288236
312086
-273766
296290
-260018
281288
-246947
267022
-234510
253492
-222736
240611
-211508
228392
-200871
216777
-190752
205752
-181150
195271
-172006
185320
-163350
175856
-155095
166877
-147283
158340
-139856
150230
-132785
142532
-126084
135217
-119723
128254
-113660
121659
-107936
115388
-102465
109425
-97275.6
103756
-92367.4
98366.9
-87681.9
93256.4
-83248.1
88413.1
-79039.6
83791.7
-75029.9
79405.1
-71227.5
75237.1
-67616.5
71277.5
-64187.6
67514.5
-60932.2
63937.7
-57839.7
60539.8
-54904.3
57310.5
-52115.5
54241
-49468.8
51325.3
-46955.4
48553.3
-44569.3
45919
-42301.6
43413.6
-40149.3
41035.7
-38107.9
38773.6
-36167
36621.4
-34323.7
34579
-32576.3
32636.4
-30916.1
30789
-29338.5
29034
-27842
27364.1
-26419.3
25779.3
-25071.6
24270.9
-23788.8
22837.4
-22573.6
21474.4
-21417.4
20179.1
-20321.3
18947.1
-19279.6
17777
-18290.8
16664.3
-17353.3
15604.9
-16459.9
14600.1
-15614.7
13645.4
-14812
12735.4
-14047.4
11871.3
-13323.7
11051.6
-12636.6
10272.1
-11983.1
9529.88
-11361.9
8825
-10774.1
8155.94
-10215.7
7520.56
-9684.65
6916.39
-9180.89
6342.38
-8702.93
5796.95
-8249.09
5279.17
-7818.95
4787.19
-7410.65
4319.95
-7023.69
3876.25
-6657.26
3454.91
-6310.49
3054.84
-5982.91
2674.94
-5674.27
2313.97
-5384.45
1971.01
-5113.66
1645.01
-4864.84
1335.21
-4635.39
1039.56
-4442.72
759.094
-4263.21
490.699
-4192.01
235.134
-4071.32
-4441.02
421818
-331760
400527
-315091
380321
-299300
361098
-284260
342859
-269997
325517
-256424
309028
-243529
293378
-231297
278522
-219654
264388
-208602
250976
-198096
238226
-188122
226110
-178635
214597
-169637
203674
-161083
193295
-152972
183432
-145231
174069
-137920
165163
-130950
156713
-124335
148675
-118046
141034
-112083
133791
-106416
126900
-101046
120348
-95912.9
114148
-91076.1
108228
-86447.4
102617
-82070.4
97290.5
-77921.6
92216.7
-73965.8
87402.9
-70216.1
82826.9
-66651.6
78481.5
-63271
74351.7
-60057.9
70426
-57006.5
66696.9
-54110.6
63152.6
-51360
59785.8
-48748.7
56584.7
-46267.7
53543.4
-43914.2
50651.7
-41677.6
47905.2
-39555.1
45294.9
-37539.1
42812.3
-35625.2
40452.7
-33807.5
38212
-32082.9
36081.2
-30445.5
34054.5
-28889.4
32129.1
-27413.1
30299
-26011.9
28561.4
-24681.6
26906
-23416.3
25335.8
-22218.6
23840.6
-21078.4
22420.4
-19997.1
21070.7
-18971.7
19787.4
-17996.3
18567.4
-17070.8
17406.4
-16192.3
16305.9
-15359.3
15258.5
-14567.3
14261.6
-13815
13316.3
-13102.1
12415.6
-12423.1
11560.9
-11781.8
10747.8
-11170.1
9976.31
-10590.4
9242.13
-10039.9
8544.41
-9517.99
7881.87
-9022.11
7252.42
-8551.44
6654.3
-8104.81
6086.43
-7681.23
5546.72
-7279.23
5034.19
-6898.12
4547.41
-6536.9
4085.01
-6194.86
3645.92
-5871.4
3228.89
-5565.88
2832.47
-5277.85
2456.07
-5008.05
2098.11
-4755.7
1757.5
-4524.23
1433.6
-4311.49
1123.91
-4133.03
829.609
-3968.91
546.009
-3908.41
275.821
-3801.13
-4165.19
438070
-308487
415985
-293006
394970
-278284
375026
-264316
356066
-251037
338062
-238420
320954
-226422
304700
-215043
289256
-204210
274576
-193923
260648
-184168
247397
-174871
234823
-166062
222883
-157697
211531
-149731
200739
-142180
190507
-134999
180760
-128174
171514
-121704
162725
-115545
154391
-109712
146469
-104161
138930
-98877
131759
-93874.5
124970
-89123.9
118505
-84610.8
112377
-80320
106553
-76245.8
101008
-72376.4
95744.6
-68702.7
90742.9
-65214.3
85992.4
-61901.1
81476.8
-58755.5
77186
-55767.1
73109.3
-52929.8
69236.7
-50238
65554.9
-47678.2
62056.5
-45250.3
58732.7
-42943.9
55573.2
-40754.7
52570.7
-38675.1
49717.8
-36702.1
47005.7
-34827
44428.5
-33048.1
41980.4
-31359.4
39652.7
-29755.1
37439.3
-28232.2
35336
-26786.1
33337
-25414
31437.7
-24112.7
29631
-22874.9
27915.3
-21700.6
26282
-20585.3
24730.9
-19527.4
23257.8
-18524
21855.5
-17569.3
20523.8
-16664.6
19256.9
-15804
18054.9
-14990.3
16910.6
-14214.9
15822.4
-13479.2
14788.9
-12781.5
13805.8
-12119
12874.4
-11491.6
11986.2
-10893.7
11142.6
-10326.4
10342
-9789.78
9581.07
-9278.99
8857.6
-8794.52
8170.27
-8334.77
7517.29
-7898.47
6896.97
-7484.49
6307.68
-7091.94
5747.95
-6719.49
5216.15
-6366.33
4711.22
-6031.97
4231.66
-5715.3
3775.98
-5415.72
3343.06
-5132.97
2931.98
-4866.78
2540.93
-4617
2169.22
-4383.99
1815.08
-4170.1
1477.77
-3974.18
1154.7
-3809.97
846.442
-3660.65
546.508
-3608.48
260.466
-3515.09
-3904.73
453216
-284434
430337
-270126
408630
-256578
387995
-243681
368373
-231415
349750
-219797
332054
-208725
315226
-198214
299251
-188235
284086
-178757
269656
-169738
255963
-161177
242961
-153060
230593
-145328
218843
-137981
207682
-131019
197081
-124398
187024
-118117
177453
-112133
168368
-106460
159739
-101083
151522
-95944.1
143746
-91101.3
136338
-86466.5
129313
-82098.4
122625
-77923.4
116275
-73969.5
110242
-70212.8
104510
-66644.6
99064.7
-63257.5
93891.3
-60041
88975.1
-56984.9
84302.7
-54083
79865.1
-51329.5
75647.9
-48712.6
71639.2
-46229.3
67831.6
-43870.6
64213.4
-41632
60774.2
-39504.7
57505.2
-37485.7
54400.6
-35570.5
51448.7
-33750.2
48643.4
-32021.8
45977.6
-30382.2
43443.9
-28825.7
41034.9
-27346.2
38746.3
-25943.6
36572.1
-24612
34505.2
-23347
32539.6
-22147.1
30671
-21006.3
28896.4
-19926
27208.6
-18897.5
25606.1
-17924.9
24080.1
-16998.1
22632.2
-16121.3
21253.5
-15285.9
19945.6
-14496
18701.1
-13745.8
17517.2
-13031.1
16393.9
-12355.8
15326.7
-11714.3
14311.3
-11103.7
13345.1
-10525.3
12429
-9977.64
11557.9
-9455.31
10729.4
-8961.27
9942.54
-8492.13
9195.02
-8047
8484.68
-7624.43
7809.91
-7223.7
7168.94
-6843.51
6559.89
-6482.89
5981.4
-6141
5432.01
-5816.93
4910.07
-5510.03
4414.36
-5219.59
3943.51
-4944.86
3496.11
-4685.57
3070.89
-4441.56
2666.7
-4212.81
2282.23
-3999.51
1915.96
-3803.83
1566.79
-3625
1231.88
-3475.06
912.023
-3340.79
598.649
-3295.1
299.887
-3216.32
-3604.84
467153
-259645
443597
-246570
421199
-234180
399931
-222413
379736
-211220
360525
-200586
342284
-190485
324955
-180885
308494
-171774
292843
-163106
277986
-154881
263880
-147071
250451
-139632
237714
-132591
225610
-125877
214110
-119519
203198
-113486
192802
-107721
182950
-102281
173584
-97093.7
164674
-92173.4
156235
-87505.1
148194
-83059.6
140578
-78851.4
133314
-74833.4
126428
-71037.9
119883
-67425
113665
-63994.7
107759
-60738.2
102146
-57645
96811.8
-54706.3
91744.4
-51917.5
86929.8
-49268.5
82354.7
-46754.4
78008.6
-44366.6
73876.9
-42097.6
69950.9
-39944.5
66220.1
-37901.2
62675.7
-35960.4
59309
-34119
56106.7
-32368.2
53064.5
-30707.9
50173.4
-29130.7
47426.2
-27635
44814.1
-26213.5
42334.1
-24866.1
39974.5
-23584
37732.5
-22369.9
35602
-21216.6
33577.4
-20122.4
31652.7
-19081.6
29822.1
-18095.4
28085.6
-17160.9
26431.5
-16270.8
24861.4
-15427.9
23367.8
-14627.8
21949.4
-13867.5
20600.3
-13147
19317.7
-12463.2
18101.3
-11814.7
16942.8
-11197.3
15841.9
-10613.5
14795.9
-10057.7
13803
-9532.52
12857
-9031.61
11960
-8558.27
11107.1
-8108.43
10296.7
-7681.72
9526.7
-7276.97
8795.16
-6892.89
8100.07
-6528.61
7439.8
-6183.24
6812.59
-5855.69
6216.7
-5545.12
5650.88
-5251.11
5113.26
-4972.4
4602.57
-4708.9
4117.43
-4459.72
3656.55
-4224.69
3218.37
-4003.38
2801.86
-3796.3
2405.39
-3603.05
2027.48
-3425.92
1667.03
-3264.54