/*--------------------------------*- C++ -*----------------------------------*\
  =========                 |
  \\      /  F ield         | OpenFOAM: The Open Source CFD Toolbox
   \\    /   O peration     | Website:  https://openfoam.org
    \\  /    A nd           | Version:  11
     \\/     M anipulation  |
\*---------------------------------------------------------------------------*/
FoamFile
{
    format      ascii;
    class       volVectorField;
    location    "470";
    object      U;
}
// * * * * * * * * * * * * * * * * * * * * * * * * * * * * * * * * * * * * * //

dimensions      [0 1 -1 0 0 0 0];

internalField   nonuniform List<vector> 
31595
(
(7.33705 -0.0278857 -4.3948e-20)
(7.35494 -0.0187272 3.49252e-20)
(7.3452 -0.018861 8.77565e-20)
(7.35006 -0.0193439 9.45924e-20)
(7.34593 -0.0191826 0)
(7.34688 -0.0190299 0)
(7.34397 -0.0190635 0)
(7.34334 -0.0189432 8.11883e-20)
(7.34095 -0.018857 4.1407e-21)
(7.33951 -0.0187019 0)
(7.33729 -0.0185409 0)
(7.33543 -0.0183268 6.26113e-20)
(7.33321 -0.0180927 -6.59223e-20)
(7.33112 -0.0178169 7.67832e-20)
(7.32885 -0.0175152 -8.08434e-20)
(7.32661 -0.0171788 9.09569e-20)
(7.32429 -0.0168157 0)
(7.32195 -0.0164235 -1.13274e-19)
(7.31956 -0.0160073 2.40476e-19)
(7.31717 -0.0155682 -6.8212e-20)
(7.31474 -0.0151109 7.18167e-20)
(7.3123 -0.0146388 0)
(7.30985 -0.0141576 0)
(7.30741 -0.0136731 9.74033e-20)
(7.30496 -0.0131926 -4.94816e-20)
(7.30253 -0.0127247 1.87927e-21)
(7.30011 -0.0122792 -1.22001e-19)
(7.29772 -0.0118677 -6.81272e-20)
(7.29535 -0.0115034 1.45564e-19)
(7.29303 -0.0112014 -1.56459e-19)
(7.29075 -0.0109786 0)
(7.28852 -0.0108542 -4.60373e-20)
(7.28635 -0.0108496 5.03336e-20)
(7.28424 -0.0109883 -5.29956e-20)
(7.2822 -0.0112963 5.757e-20)
(7.28022 -0.0118019 -6.26802e-20)
(7.27831 -0.0125357 3.21961e-20)
(7.27647 -0.0135306 1.07458e-19)
(7.27469 -0.014822 0)
(7.27298 -0.0164473 -4.13587e-20)
(7.27132 -0.0184462 8.69513e-20)
(7.26971 -0.0208602 0)
(7.26813 -0.0237332 0)
(7.26658 -0.0271104 -2.76433e-20)
(7.26503 -0.0310391 1.15167e-19)
(7.26347 -0.0355684 0)
(7.26187 -0.0407489 -3.2891e-20)
(7.26022 -0.0466331 6.85622e-20)
(7.25848 -0.0532754 -3.76137e-20)
(7.25663 -0.0607319 3.86591e-20)
(7.25463 -0.0690611 -1.09296e-19)
(7.25246 -0.0783237 1.98627e-20)
(7.25008 -0.0885836 -7.62589e-20)
(7.24745 -0.099907 1.08495e-19)
(7.24452 -0.112365 -2.65192e-20)
(7.24127 -0.126032 -5.98117e-20)
(7.23765 -0.140987 -3.39377e-20)
(7.2336 -0.157316 -2.22909e-20)
(7.22909 -0.17511 -4.15037e-20)
(7.22406 -0.194469 6.67889e-20)
(7.21845 -0.215501 -1.98495e-21)
(7.21222 -0.238326 2.75363e-20)
(7.2053 -0.263073 -2.68618e-21)
(7.19763 -0.289887 -1.31142e-20)
(7.18915 -0.318929 2.06914e-20)
(7.17979 -0.350376 -7.8567e-20)
(7.16946 -0.384431 -2.4517e-20)
(7.15811 -0.421322 2.14855e-20)
(7.14564 -0.461304 8.2044e-20)
(7.13198 -0.504674 4.48406e-21)
(7.11702 -0.551764 -4.59025e-20)
(7.10069 -0.602964 9.21778e-22)
(7.08288 -0.658731 4.16183e-20)
(7.0635 -0.719565 0)
(7.04246 -0.786161 5.30119e-20)
(7.01966 -0.85905 0)
(6.99505 -0.939599 2.76432e-20)
(6.96854 -1.0277 0)
(6.94015 -1.12729 0)
(6.91007 -1.23396 0)
(6.87765 -1.36266 4.74714e-20)
(6.84625 -1.48829 2.12747e-20)
(6.8075 -1.67021 -3.367e-20)
(6.78705 -1.80167 -2.77821e-20)
(6.72575 -2.09639 1.24427e-20)
(6.7693 -2.1892 4.24316e-21)
(6.61337 -2.71827 6.29837e-21)
(6.97468 -2.74311 2.05979e-21)
(6.40468 -3.76103 -2.25638e-21)
(7.34678 -0.0243915 1.79691e-19)
(7.34979 -0.0184236 8.40412e-20)
(7.34909 -0.0168356 6.69089e-20)
(7.34831 -0.0177796 -2.76371e-19)
(7.34726 -0.0175226 0)
(7.34617 -0.0173729 0)
(7.34462 -0.0173134 1.34122e-19)
(7.34308 -0.0172217 0)
(7.34132 -0.0170733 0)
(7.33951 -0.0169114 -1.87513e-19)
(7.33757 -0.0167084 -3.16515e-19)
(7.33557 -0.0164752 2.29345e-19)
(7.33349 -0.0162055 1.28535e-19)
(7.33135 -0.0159052 2.88719e-19)
(7.32916 -0.0155722 -1.54243e-19)
(7.32692 -0.01521 -8.74325e-20)
(7.32463 -0.0148195 9.82019e-20)
(7.32231 -0.0144037 -3.13643e-19)
(7.31995 -0.013965 2.04614e-21)
(7.31757 -0.0135071 -2.51672e-19)
(7.31516 -0.0130339 0)
(7.31273 -0.01255 0)
(7.31029 -0.0120611 0)
(7.30784 -0.0115738 0)
(7.30538 -0.0110957 1.98491e-19)
(7.30293 -0.0106354 0)
(7.30048 -0.0102034 2.36263e-19)
(7.29805 -0.00981102 0)
(7.29563 -0.00947164 1.39201e-19)
(7.29324 -0.00920013 7.57637e-20)
(7.29088 -0.00901325 -8.31295e-20)
(7.28854 -0.00892969 8.63246e-20)
(7.28625 -0.00897012 9.46891e-20)
(7.28399 -0.0091573 -1.04879e-19)
(7.28177 -0.00951615 1.10438e-19)
(7.27959 -0.0100737 -6.09154e-20)
(7.27745 -0.0108591 1.28654e-19)
(7.27535 -0.011904 -6.93239e-20)
(7.27329 -0.0132418 0)
(7.27125 -0.0149079 0)
(7.26924 -0.0169403 -1.74915e-19)
(7.26723 -0.0193783 -2.03252e-21)
(7.26522 -0.0222636 0)
(7.2632 -0.0256395 1.08775e-19)
(7.26114 -0.0295513 -1.15324e-19)
(7.25904 -0.0340458 -6.10729e-20)
(7.25685 -0.0391719 0)
(7.25457 -0.0449802 0)
(7.25216 -0.0515233 0)
(7.2496 -0.058856 3.98766e-20)
(7.24685 -0.0670353 4.28566e-20)
(7.24388 -0.0761209 4.61191e-20)
(7.24066 -0.0861751 4.97048e-20)
(7.23715 -0.0972638 -5.36574e-20)
(7.2333 -0.109457 3.24393e-20)
(7.22907 -0.122829 -1.01806e-21)
(7.22442 -0.137458 7.18388e-20)
(7.2193 -0.153429 -4.12087e-20)
(7.21367 -0.170835 3.76127e-20)
(7.20745 -0.189775 -4.5824e-20)
(7.20061 -0.210358 -2.41931e-20)
(7.19308 -0.232703 -8.75326e-20)
(7.1848 -0.256941 2.93326e-20)
(7.17569 -0.283219 -3.52984e-20)
(7.1657 -0.311699 1.52755e-21)
(7.15474 -0.342561 1.27817e-19)
(7.14274 -0.37601 -5.00924e-20)
(7.12961 -0.412277 1.04502e-19)
(7.11526 -0.451624 -8.10364e-20)
(7.09959 -0.494355 3.74063e-20)
(7.08251 -0.540808 -3.71117e-20)
(7.0639 -0.591384 3.92604e-20)
(7.04367 -0.646557 -6.49695e-20)
(7.02168 -0.706845 5.23166e-20)
(6.99784 -0.772948 -2.47379e-20)
(6.97201 -0.845479 0)
(6.94412 -0.925724 7.4426e-20)
(6.91408 -1.01389 8.27692e-20)
(6.8818 -1.11343 9.16033e-20)
(6.84752 -1.22116 2.37958e-20)
(6.81056 -1.34993 -9.80892e-20)
(6.77387 -1.47905 -3.30092e-20)
(6.73046 -1.66044 -6.33336e-20)
(6.70195 -1.80079 8.30254e-20)
(6.63861 -2.09379 3.02709e-20)
(6.66737 -2.20275 -5.68317e-20)
(6.51601 -2.73342 -8.30943e-21)
(6.83267 -2.76468 -2.34599e-20)
(6.28617 -3.81043 -1.58742e-20)
(7.34837 -0.0204541 -1.38429e-19)
(7.34988 -0.0169302 -1.33376e-19)
(7.34963 -0.0151017 1.60047e-19)
(7.34854 -0.0159438 1.04236e-20)
(7.34746 -0.0158838 -2.10546e-19)
(7.34629 -0.0156907 2.21671e-19)
(7.34479 -0.0156146 2.61336e-19)
(7.34321 -0.0155071 -1.40416e-19)
(7.34149 -0.0153408 0)
(7.33969 -0.0151491 1.80923e-19)
(7.33778 -0.0149207 2.01462e-19)
(7.33581 -0.0146576 -1.11857e-19)
(7.33375 -0.0143587 -1.24027e-19)
(7.33164 -0.0140277 -1.41364e-19)
(7.32948 -0.0136647 1.47613e-19)
(7.32726 -0.0132725 0)
(7.325 -0.0128531 1.87866e-19)
(7.3227 -0.0124097 2.06144e-19)
(7.32036 -0.0119452 0)
(7.31799 -0.0114635 -1.2015e-19)
(7.31559 -0.010969 0)
(7.31316 -0.0104669 -1.45678e-19)
(7.31072 -0.00996309 0)
(7.30826 -0.00946438 3.52516e-19)
(7.30579 -0.00897871 -3.75168e-19)
(7.30331 -0.008515 -4.12375e-19)
(7.30083 -0.0080836 -2.29177e-19)
(7.29835 -0.00769615 1.21526e-19)
(7.29588 -0.00736575 -1.34469e-19)
(7.29341 -0.0071071 0)
(7.29095 -0.00693673 0)
(7.28851 -0.00687275 -8.69843e-20)
(7.28608 -0.00693517 1.83279e-19)
(7.28367 -0.00714612 9.91576e-20)
(7.28128 -0.00752932 0)
(7.2789 -0.00811097 0)
(7.27654 -0.00891893 -1.28278e-19)
(7.27418 -0.00998327 1.35118e-19)
(7.27183 -0.0113358 -7.45968e-20)
(7.26948 -0.0130107 3.19298e-19)
(7.26712 -0.0150437 1.73158e-19)
(7.26473 -0.0174729 -1.53237e-22)
(7.26231 -0.0203377 -1.0077e-19)
(7.25983 -0.0236799 3.41286e-21)
(7.25728 -0.0275427 1.13322e-19)
(7.25465 -0.0319714 -1.26862e-19)
(7.2519 -0.0370131 6.79574e-20)
(7.24901 -0.042717 2.54908e-21)
(7.24595 -0.049134 0)
(7.2427 -0.0563176 -8.70286e-20)
(7.23923 -0.0643235 -9.44384e-20)
(7.23549 -0.0732106 1.02615e-19)
(7.23145 -0.0830402 -5.67958e-20)
(7.22707 -0.0938772 -1.17579e-19)
(7.22232 -0.105791 1.52122e-21)
(7.21714 -0.118855 7.11489e-20)
(7.21149 -0.133148 -7.50572e-20)
(7.20531 -0.148755 -4.26947e-20)
(7.19856 -0.165768 1.37913e-19)
(7.19118 -0.184287 4.59348e-20)
(7.18311 -0.20442 5.45098e-20)
(7.17429 -0.226288 5.82844e-20)
(7.16464 -0.250024 -7.13824e-20)
(7.1541 -0.275774 0)
(7.14259 -0.303701 0)
(7.13003 -0.333991 -1.89324e-19)
(7.11633 -0.366851 -5.85702e-20)
(7.10139 -0.402514 0)
(7.08512 -0.441248 0)
(7.06741 -0.483358 -6.7562e-20)
(7.04815 -0.529197 0)
(7.0272 -0.579178 -1.41076e-19)
(7.00446 -0.633776 4.88826e-20)
(6.97977 -0.693535 5.018e-21)
(6.953 -0.759168 -1.60101e-19)
(6.92401 -0.831348 3.42297e-20)
(6.89266 -0.911313 -1.1649e-19)
(6.85886 -0.999506 -1.24409e-19)
(6.82244 -1.09904 -9.05876e-20)
(6.78363 -1.20768 1.14786e-19)
(6.74169 -1.33666 -1.26028e-19)
(6.69934 -1.4688 6.00989e-20)
(6.65029 -1.65017 6.30073e-20)
(6.61386 -1.79815 -1.67442e-19)
(6.54602 -2.09051 1.87269e-20)
(6.56117 -2.21441 2.7513e-20)
(6.41199 -2.74725 8.35648e-21)
(6.69431 -2.78573 8.59544e-20)
(6.20847 -3.86899 2.77742e-20)
(7.34948 -0.0171045 -1.28388e-19)
(7.34992 -0.0151348 -1.37907e-19)
(7.34998 -0.013394 -1.44868e-19)
(7.34875 -0.0141312 1.79801e-19)
(7.34764 -0.0142257 7.21534e-21)
(7.34641 -0.0140354 0)
(7.34496 -0.0139425 7.77129e-21)
(7.34337 -0.0138216 -1.3641e-19)
(7.34168 -0.0136395 1.5141e-19)
(7.33989 -0.0134198 0)
(7.33801 -0.0131646 1.98337e-19)
(7.33606 -0.0128712 -2.08837e-19)
(7.33403 -0.0125417 -2.43439e-19)
(7.33195 -0.0121784 1.24523e-19)
(7.32981 -0.0117833 0)
(7.32761 -0.0113589 0)
(7.32537 -0.010908 -1.75214e-19)
(7.32309 -0.0104338 -1.94767e-19)
(7.32077 -0.00993981 2.11936e-19)
(7.31841 -0.00943028 4.73923e-19)
(7.31602 -0.00890995 3.6712e-21)
(7.3136 -0.00838415 -2.81951e-19)
(7.31115 -0.00785911 -5.86173e-21)
(7.30869 -0.00734192 -3.67835e-21)
(7.3062 -0.00684064 1.40284e-21)
(7.30369 -0.00636438 2.01201e-19)
(7.30117 -0.00592338 0)
(7.29864 -0.00552927 1.21155e-19)
(7.2961 -0.00519502 -2.59404e-19)
(7.29356 -0.00493522 -1.45234e-19)
(7.29101 -0.00476576 -4.71857e-21)
(7.28846 -0.00470425 -2.40783e-21)
(7.2859 -0.00477022 -1.8027e-19)
(7.28334 -0.00498487 0)
(7.28077 -0.00537109 0)
(7.2782 -0.00595385 -1.16386e-19)
(7.27561 -0.00675991 -2.21033e-21)
(7.27301 -0.00781783 0)
(7.27038 -0.00915818 0)
(7.26772 -0.0108135 -1.55714e-19)
(7.26502 -0.0128178 -8.40445e-20)
(7.26226 -0.0152075 1.85788e-19)
(7.25943 -0.0180204 1.98551e-19)
(7.25651 -0.0212964 -1.02786e-19)
(7.25349 -0.0250769 2.35885e-19)
(7.25034 -0.0294057 -7.73508e-22)
(7.24703 -0.0343281 0)
(7.24356 -0.0398916 -7.21555e-20)
(7.23988 -0.0461458 1.64032e-19)
(7.23596 -0.0531426 1.73155e-19)
(7.23177 -0.0609364 -9.85235e-20)
(7.22728 -0.0695849 -9.99498e-20)
(7.22245 -0.0791484 1.08795e-19)
(7.21724 -0.0896909 0)
(7.2116 -0.101281 -1.38923e-19)
(7.20549 -0.113991 0)
(7.19885 -0.127899 0)
(7.19164 -0.143091 0)
(7.18381 -0.159656 -9.37364e-20)
(7.17528 -0.177696 5.52587e-20)
(7.166 -0.197319 6.60503e-20)
(7.15591 -0.218645 0)
(7.14492 -0.241807 -8.07687e-21)
(7.13296 -0.266954 5.64699e-21)
(7.11995 -0.29425 0)
(7.10579 -0.32388 4.4051e-20)
(7.0904 -0.356053 4.379e-20)
(7.07367 -0.391007 -1.3174e-19)
(7.05549 -0.429012 0)
(7.03574 -0.470382 0)
(7.01428 -0.515474 0)
(6.99098 -0.564707 4.26532e-20)
(6.9657 -0.618568 5.38305e-20)
(6.93827 -0.677627 0)
(6.90852 -0.742595 -5.80315e-21)
(6.87629 -0.814201 2.40343e-19)
(6.84139 -0.893655 3.75494e-20)
(6.8037 -0.981604 9.76997e-20)
(6.76297 -1.08087 -1.96298e-19)
(6.71942 -1.19008 1.32508e-20)
(6.67218 -1.31899 1.61723e-20)
(6.62388 -1.45374 -3.70759e-20)
(6.56849 -1.63475 3.93906e-20)
(6.5239 -1.79013 1.74107e-19)
(6.45001 -2.08127 0)
(6.45159 -2.22025 1.12254e-19)
(6.30286 -2.75642 6.65676e-20)
(6.5481 -2.80261 -6.45649e-20)
(6.13392 -3.92796 -9.20486e-21)
(7.34983 -0.0142865 2.41378e-19)
(7.35002 -0.0133662 0)
(7.35014 -0.0117474 1.40776e-19)
(7.34897 -0.0123914 3.41707e-19)
(7.34779 -0.0125841 -1.77336e-19)
(7.34656 -0.0124207 -2.07807e-19)
(7.34513 -0.0123079 4.88296e-19)
(7.34355 -0.0121749 -5.31768e-19)
(7.34188 -0.0119745 0)
(7.34011 -0.0117286 1.72109e-19)
(7.33826 -0.0114441 -1.8122e-19)
(7.33633 -0.0111196 0)
(7.33433 -0.0107571 0)
(7.33227 -0.0103597 0)
(7.33016 -0.00992993 2.77304e-19)
(7.32799 -0.00947062 0)
(7.32577 -0.00898492 1.70327e-19)
(7.3235 -0.00847639 -1.90677e-19)
(7.3212 -0.00794891 -5.23184e-21)
(7.31885 -0.00740687 -2.23859e-19)
(7.31647 -0.00685532 -2.54712e-19)
(7.31405 -0.00629988 5.37537e-19)
(7.3116 -0.00574687 0)
(7.30912 -0.00520349 3.22874e-19)
(7.30661 -0.00467797 3.54519e-19)
(7.30407 -0.00417941 -4.35723e-21)
(7.30151 -0.00371802 2.07761e-19)
(7.29893 -0.00330532 0)
(7.29633 -0.00295407 0)
(7.29371 -0.00267844 2.76046e-19)
(7.29106 -0.00249391 -1.43869e-19)
(7.2884 -0.00241777 -1.59352e-19)
(7.28571 -0.00246852 1.75991e-19)
(7.283 -0.00266677 1.91333e-19)
(7.28027 -0.00303454 -2.10634e-19)
(7.2775 -0.00359569 3.36186e-19)
(7.27469 -0.00437573 1.11214e-21)
(7.27185 -0.0054021 0)
(7.26895 -0.00670382 -1.44596e-19)
(7.26599 -0.00831203 0)
(7.26295 -0.0102593 1.70453e-19)
(7.25983 -0.0125803 -3.66095e-19)
(7.25661 -0.0153112 -1.0082e-19)
(7.25326 -0.0184903 6.70393e-23)
(7.24978 -0.0221571 -2.33934e-19)
(7.24613 -0.0263542 2.54396e-19)
(7.2423 -0.0311249 4.31096e-21)
(7.23825 -0.0365153 -1.48069e-19)
(7.23396 -0.0425734 9.06131e-20)
(7.2294 -0.0493498 -8.78365e-20)
(7.22453 -0.0568977 9.48859e-20)
(7.21931 -0.065273 7.80829e-22)
(7.21371 -0.0745353 -4.37301e-21)
(7.20768 -0.0847471 1.25437e-19)
(7.20118 -0.0959766 1.35696e-19)
(7.19416 -0.108294 -7.87976e-20)
(7.18657 -0.121779 -3.64649e-21)
(7.17835 -0.136514 -4.15217e-21)
(7.16945 -0.15259 2.08354e-19)
(7.1598 -0.170106 -5.86415e-20)
(7.14933 -0.189172 6.82337e-21)
(7.13798 -0.209906 2.14947e-19)
(7.12567 -0.232443 1.49886e-19)
(7.1123 -0.25693 -2.64548e-19)
(7.09781 -0.283531 -9.97506e-20)
(7.08207 -0.312437 1.05543e-19)
(7.065 -0.343854 1.15621e-19)
(7.04648 -0.378023 -1.19786e-20)
(7.02639 -0.415219 0)
(7.00458 -0.455757 -8.75271e-20)
(6.98092 -0.499999 1.41867e-19)
(6.95525 -0.548375 -5.20713e-20)
(6.9274 -0.601379 0)
(6.89718 -0.659593 -6.95716e-20)
(6.8644 -0.723745 7.38656e-20)
(6.82885 -0.79461 -1.62126e-19)
(6.7903 -0.873374 -2.00975e-19)
(6.74858 -0.96085 2.25706e-19)
(6.70337 -1.05965 2.4037e-19)
(6.65486 -1.16909 1.4368e-20)
(6.60204 -1.29775 1.40694e-19)
(6.54745 -1.43463 4.17217e-20)
(6.48518 -1.61515 -2.34317e-19)
(6.43208 -1.77732 -9.26931e-20)
(6.35089 -2.0671 0)
(6.33874 -2.22113 -1.02123e-19)
(6.18822 -2.76185 -8.7692e-20)
(6.39075 -2.81719 1.16867e-19)
(6.02718 -3.97952 0)
(7.35014 -0.0119315 0)
(7.35007 -0.0116783 0)
(7.35026 -0.0102059 0)
(7.34914 -0.0107458 -1.63028e-19)
(7.34793 -0.0109954 -1.92167e-19)
(7.34671 -0.0108563 2.02339e-19)
(7.3453 -0.0107237 -1.27342e-21)
(7.34374 -0.0105724 -2.59948e-19)
(7.34209 -0.0103516 -2.89577e-19)
(7.34035 -0.0100776 0)
(7.33852 -0.00976153 -3.5723e-19)
(7.33662 -0.00940345 0)
(7.33465 -0.00900567 2.19036e-19)
(7.33262 -0.00857155 0)
(7.33053 -0.00810425 -2.7045e-19)
(7.32838 -0.0076069 3.03647e-19)
(7.32618 -0.00708304 4.92111e-21)
(7.32394 -0.00653636 0)
(7.32164 -0.00597105 1.96492e-19)
(7.31931 -0.00539177 -2.19415e-19)
(7.31693 -0.00480362 -5.93152e-21)
(7.31451 -0.00421242 -2.59954e-19)
(7.31205 -0.00362461 2.84921e-19)
(7.30956 -0.00304746 -6.27072e-19)
(7.30703 -0.00248923 -1.72272e-19)
(7.30447 -0.00195888 2.90316e-21)
(7.30187 -0.0014667 -2.01349e-19)
(7.29923 -0.00102382 0)
(7.29657 -0.000642839 2.48514e-19)
(7.29387 -0.000337344 -2.56515e-19)
(7.29113 -0.000122777 -1.40207e-19)
(7.28835 -1.53134e-05 3.1584e-19)
(7.28554 -3.32832e-05 -3.46701e-19)
(7.28268 -0.000196289 -1.92888e-19)
(7.27978 -0.000525385 -6.49905e-21)
(7.27682 -0.00104341 4.40166e-19)
(7.2738 -0.00177488 0)
(7.27072 -0.00274587 0)
(7.26756 -0.00398426 -3.3163e-21)
(7.2643 -0.0055196 -3.48627e-21)
(7.26095 -0.00738306 -1.66599e-19)
(7.25748 -0.0096077 -5.02965e-21)
(7.25388 -0.0122282 -1.06508e-19)
(7.25012 -0.0152814 2.15946e-19)
(7.24619 -0.0188051 1.16149e-19)
(7.24207 -0.0228402 0)
(7.23772 -0.0274284 0)
(7.23312 -0.0326144 1.55957e-19)
(7.22825 -0.0384447 -3.28248e-19)
(7.22306 -0.0449683 0)
(7.21752 -0.0522373 -3.07275e-19)
(7.2116 -0.0603059 -1.11404e-19)
(7.20525 -0.0692328 1.18384e-19)
(7.19843 -0.079079 0)
(7.1911 -0.089912 1.50164e-19)
(7.18319 -0.101801 -8.24129e-20)
(7.17467 -0.114824 1.78084e-19)
(7.16546 -0.129062 -2.98995e-19)
(7.15552 -0.144608 7.23713e-21)
(7.14477 -0.161558 0)
(7.13314 -0.180021 -1.29301e-19)
(7.12056 -0.200116 -1.43687e-19)
(7.10694 -0.221977 8.53775e-20)
(7.0922 -0.245751 -7.3844e-21)
(7.07623 -0.271604 1.00804e-19)
(7.05893 -0.299722 -2.39042e-19)
(7.0402 -0.330318 5.94019e-20)
(7.01989 -0.363634 1.33816e-19)
(6.99789 -0.399942 -7.91753e-20)
(6.97404 -0.439564 0)
(6.94817 -0.482868 2.13591e-19)
(6.92011 -0.530287 2.40337e-19)
(6.88967 -0.582326 0)
(6.85663 -0.639584 -7.53825e-20)
(6.82076 -0.702793 -6.76469e-21)
(6.78182 -0.772768 -2.83803e-19)
(6.73953 -0.85069 1.45607e-19)
(6.69366 -0.937512 1.39133e-19)
(6.64381 -1.03568 -5.34008e-19)
(6.5901 -1.14511 -6.86516e-20)
(6.53143 -1.2734 -4.22687e-20)
(6.47014 -1.41201 -1.95278e-19)
(6.40048 -1.59215 1.88091e-19)
(6.33822 -1.76049 -2.08467e-19)
(6.24864 -2.0494 2.89988e-20)
(6.22196 -2.218 0)
(6.06716 -2.76372 0)
(6.23965 -2.83834 3.12243e-20)
(5.87076 -4.00704 -8.89345e-21)
(7.35041 -0.00994235 0)
(7.35011 -0.0101213 0)
(7.35034 -0.00878639 0)
(7.3493 -0.0092122 1.33629e-20)
(7.34808 -0.00947845 -1.745e-19)
(7.34686 -0.00935405 4.07136e-19)
(7.34548 -0.00919751 -4.48197e-19)
(7.34395 -0.00902127 7.67406e-19)
(7.34232 -0.00877525 8.61817e-21)
(7.34061 -0.00847029 0)
(7.33881 -0.00811948 3.49479e-19)
(7.33693 -0.00772487 1.97581e-19)
(7.33499 -0.00728879 -4.22383e-19)
(7.33298 -0.00681496 0)
(7.33092 -0.00630691 2.66206e-19)
(7.3288 -0.00576818 -2.80348e-19)
(7.32662 -0.00520242 5.38628e-21)
(7.32439 -0.00461358 -3.40289e-19)
(7.32211 -0.00400597 3.11522e-21)
(7.31979 -0.00338441 5.47797e-21)
(7.31742 -0.00275411 -6.42012e-21)
(7.315 -0.00212098 5.02549e-19)
(7.31253 -0.00149152 -3.03142e-21)
(7.31003 -0.000873013 6.07838e-19)
(7.30748 -0.000273575 0)
(7.30488 0.000297902 0)
(7.30224 0.000831295 0)
(7.29956 0.00131571 0)
(7.29683 0.00173898 -4.7944e-19)
(7.29405 0.00208777 5.15374e-19)
(7.29122 0.0023473 5.71599e-19)
(7.28834 0.00250178 -1.49752e-19)
(7.2854 0.00253365 -3.40245e-19)
(7.2824 0.00242426 1.80831e-19)
(7.27933 0.00215331 0)
(7.27619 0.00169896 -6.58839e-19)
(7.27297 0.0010378 -2.46827e-19)
(7.26965 0.000144966 -5.36747e-21)
(7.26624 -0.00100616 0)
(7.2627 -0.0024437 -2.25321e-21)
(7.25904 -0.00419752 0)
(7.25524 -0.00629924 -1.86432e-19)
(7.25127 -0.0087819 3.94059e-19)
(7.24711 -0.0116807 -2.15339e-19)
(7.24276 -0.0150324 -1.21378e-19)
(7.23817 -0.0188756 -4.73422e-21)
(7.23333 -0.023251 1.39975e-19)
(7.2282 -0.0282017 0)
(7.22276 -0.0337724 -1.74106e-19)
(7.21697 -0.0400107 0)
(7.21079 -0.0469676 4.11848e-19)
(7.20419 -0.0546956 -1.15819e-19)
(7.19712 -0.0632519 1.22252e-19)
(7.18953 -0.0726963 1.40758e-19)
(7.18139 -0.0830954 -2.96591e-19)
(7.17263 -0.094517 -1.64212e-19)
(7.1632 -0.107037 0)
(7.15303 -0.120738 1.99776e-19)
(7.14208 -0.135708 -1.10768e-19)
(7.13025 -0.152044 0)
(7.11749 -0.169855 -1.45714e-19)
(7.1037 -0.189259 0)
(7.08881 -0.210388 0)
(7.0727 -0.233388 -1.01048e-19)
(7.05529 -0.258426 2.20067e-19)
(7.03646 -0.285689 1.25569e-19)
(7.01608 -0.315386 7.86254e-21)
(6.99401 -0.347762 -1.46481e-21)
(6.97012 -0.383092 0)
(6.94423 -0.421699 0)
(6.91616 -0.463951 -3.26469e-19)
(6.88572 -0.51029 -2.31214e-19)
(6.85268 -0.561227 -4.25994e-19)
(6.8168 -0.617371 -8.13626e-20)
(6.77782 -0.679463 2.5751e-19)
(6.73545 -0.74835 1.92881e-19)
(6.68934 -0.825212 5.84596e-20)
(6.63922 -0.911116 -3.07629e-19)
(6.58461 -1.00839 2.7622e-19)
(6.52549 -1.11744 0)
(6.46072 -1.24506 -1.90363e-19)
(6.39235 -1.38486 2.98377e-19)
(6.31481 -1.56432 -1.10714e-19)
(6.24268 -1.73811 2.37785e-19)
(6.14361 -2.02578 0)
(6.10137 -2.2088 0)
(5.93984 -2.75688 1.63559e-20)
(6.07979 -2.84839 6.03468e-21)
(5.737 -4.04464 -2.59065e-21)
(7.35068 -0.00825605 0)
(7.35017 -0.00869593 0)
(7.35041 -0.00748731 -2.7582e-19)
(7.34944 -0.00779477 6.40371e-19)
(7.34822 -0.00804473 -7.01e-19)
(7.34702 -0.00792125 -3.96259e-19)
(7.34567 -0.00773537 -2.27835e-19)
(7.34416 -0.0075266 2.45953e-19)
(7.34256 -0.0072495 1.46191e-20)
(7.34088 -0.00690942 -6.08922e-19)
(7.33911 -0.0065202 -5.8705e-21)
(7.33727 -0.00608549 -3.70514e-19)
(7.33535 -0.00560776 -1.98095e-19)
(7.33337 -0.00509086 3.45563e-21)
(7.33133 -0.00453869 8.00957e-21)
(7.32924 -0.0039549 -5.5544e-19)
(7.32708 -0.00334333 6.02536e-19)
(7.32487 -0.00270811 1.02335e-20)
(7.32261 -0.00205362 -1.73296e-19)
(7.3203 -0.0013847 -6.03496e-19)
(7.31793 -0.000706663 -2.24967e-19)
(7.31551 -2.54501e-05 -2.43842e-19)
(7.31304 0.000652528 -2.70838e-19)
(7.31052 0.00131998 4.58226e-21)
(7.30795 0.00196901 -9.6971e-19)
(7.30533 0.00259079 5.28771e-19)
(7.30265 0.00317554 -3.83689e-19)
(7.29992 0.00371264 -5.02751e-21)
(7.29712 0.00419021 -7.24747e-21)
(7.29427 0.00459544 5.08292e-19)
(7.29135 0.00491407 -5.50719e-19)
(7.28837 0.00513087 -3.03514e-19)
(7.28531 0.00522906 6.6566e-19)
(7.28217 0.0051908 -1.77856e-19)
(7.27895 0.00499652 -3.99195e-19)
(7.27563 0.00462556 4.27377e-19)
(7.27221 0.00405552 2.34794e-19)
(7.26867 0.0032627 2.56162e-19)
(7.26501 0.00222173 -2.82616e-19)
(7.26121 0.000905806 1.52524e-19)
(7.25725 -0.00071366 0)
(7.25312 -0.00266673 1.99251e-21)
(7.2488 -0.00498499 -1.97277e-19)
(7.24427 -0.00770219 2.22157e-19)
(7.2395 -0.0108534 1.22796e-19)
(7.23447 -0.014476 -2.64154e-19)
(7.22915 -0.0186088 1.42029e-19)
(7.22352 -0.0232935 1.62307e-19)
(7.21753 -0.0285732 -1.78195e-19)
(7.21116 -0.0344943 1.88323e-19)
(7.20437 -0.0411054 -4.22907e-19)
(7.19711 -0.0484585 1.19384e-19)
(7.18934 -0.056609 -1.26049e-19)
(7.18102 -0.0656153 -1.45805e-19)
(7.17209 -0.0755421 4.69072e-19)
(7.1625 -0.086456 -3.49202e-19)
(7.15219 -0.0984322 -9.93186e-20)
(7.1411 -0.111551 -1.15536e-19)
(7.12916 -0.125899 1.22827e-19)
(7.1163 -0.141573 -5.40228e-19)
(7.10243 -0.15868 2.88858e-19)
(7.08747 -0.177336 -1.70505e-19)
(7.07132 -0.197671 2.75761e-19)
(7.05389 -0.219833 3.14348e-19)
(7.03507 -0.243986 0)
(7.01472 -0.270314 0)
(6.99272 -0.299029 1.50761e-19)
(6.96892 -0.330373 -1.59904e-19)
(6.94316 -0.364623 1.90916e-19)
(6.91526 -0.402099 0)
(6.88501 -0.443175 -1.57477e-20)
(6.8522 -0.488292 -2.74006e-19)
(6.81658 -0.537964 -9.78996e-20)
(6.77786 -0.592812 8.22318e-20)
(6.73576 -0.653582 0)
(6.68992 -0.721148 3.36114e-19)
(6.63997 -0.796685 -1.19158e-19)
(6.58553 -0.881357 7.15203e-20)
(6.52604 -0.977391 -1.57193e-19)
(6.46137 -1.08561 8.63563e-20)
(6.39028 -1.21215 1.91458e-19)
(6.3145 -1.35248 0)
(6.22865 -1.53075 0)
(6.14606 -1.7091 2.93245e-19)
(6.03649 -1.99467 -3.11526e-19)
(5.97769 -2.19183 0)
(5.80652 -2.73928 0)
(5.91557 -2.85749 -1.57508e-19)
(5.60944 -4.08589 -7.17826e-20)
(7.35097 -0.00682018 2.31955e-19)
(7.35026 -0.00739909 -2.83425e-21)
(7.35049 -0.0063033 -2.81084e-19)
(7.34959 -0.00649263 0)
(7.34838 -0.0066994 -3.60115e-19)
(7.34719 -0.00656224 7.69137e-19)
(7.34587 -0.00634065 -4.29892e-19)
(7.3444 -0.00609192 8.11838e-21)
(7.34283 -0.00577729 -2.5997e-19)
(7.34117 -0.00539737 0)
(7.33943 -0.00496559 3.29458e-19)
(7.33762 -0.00448684 3.64627e-19)
(7.33574 -0.0039638 -1.9898e-19)
(7.33379 -0.00340027 2.05301e-19)
(7.33178 -0.0028003 4.84245e-19)
(7.3297 -0.00216765 -5.42079e-19)
(7.32757 -0.00150625 2.85353e-19)
(7.32538 -0.000820324 3.28781e-19)
(7.32314 -0.000114235 0)
(7.32084 0.000607098 7.89721e-19)
(7.31848 0.00133847 -4.37321e-19)
(7.31606 0.00207391 7.10512e-19)
(7.31359 0.00280725 0)
(7.31106 0.00353117 -2.93457e-19)
(7.30847 0.00423798 3.04208e-19)
(7.30582 0.00491916 3.39016e-19)
(7.3031 0.00556512 1.90201e-19)
(7.30032 0.0061657 -2.08249e-19)
(7.29747 0.00670918 2.27955e-19)
(7.29454 0.00718348 0)
(7.29154 0.0075749 2.71615e-19)
(7.28845 0.00786869 -6.4469e-21)
(7.28528 0.00804877 1.53542e-19)
(7.28201 0.00809831 -6.69934e-21)
(7.27863 0.00799865 5.85692e-19)
(7.27515 0.00772982 8.00889e-21)
(7.27153 0.00727072 8.78007e-21)
(7.26779 0.00659873 -5.07863e-19)
(7.26389 0.00568966 2.78535e-19)
(7.25983 0.004518 -1.56392e-19)
(7.25559 0.00305651 -6.46745e-21)
(7.25115 0.00127666 3.63179e-19)
(7.2465 -0.000852041 -2.06031e-19)
(7.2416 -0.00336145 -2.2539e-19)
(7.23644 -0.00628549 -2.59814e-21)
(7.23099 -0.00965966 6.68839e-19)
(7.22522 -0.0135215 -2.94177e-19)
(7.21909 -0.0179108 1.58447e-19)
(7.21259 -0.0228696 0)
(7.20566 -0.0284422 -1.99599e-19)
(7.19828 -0.0346759 4.33398e-19)
(7.19039 -0.0416211 1.2276e-19)
(7.18195 -0.0493313 -2.63915e-19)
(7.17292 -0.0578638 -1.43514e-19)
(7.16323 -0.0672813 0)
(7.15285 -0.0776494 1.76568e-19)
(7.14169 -0.0890412 9.43062e-22)
(7.1297 -0.101535 -9.32553e-23)
(7.1168 -0.115217 0)
(7.10293 -0.130181 5.55178e-19)
(7.08798 -0.146532 0)
(7.07188 -0.164386 1.77888e-19)
(7.05452 -0.18387 -1.88752e-19)
(7.03579 -0.205131 -2.11408e-19)
(7.01558 -0.228329 -1.24924e-19)
(6.99376 -0.253649 -1.33328e-19)
(6.97017 -0.2813 0)
(6.94466 -0.311523 0)
(6.91706 -0.344592 -1.89503e-19)
(6.88717 -0.380827 -1.13756e-19)
(6.85476 -0.420605 1.05748e-19)
(6.8196 -0.46436 2.72379e-19)
(6.7814 -0.512618 4.72255e-19)
(6.73986 -0.565994 -1.74915e-19)
(6.69463 -0.625247 2.10548e-19)
(6.64532 -0.691263 1.52473e-20)
(6.59148 -0.765219 2.71164e-19)
(6.53266 -0.848351 0)
(6.46822 -0.942812 0)
(6.39788 -1.04978 -3.96969e-19)
(6.32029 -1.17481 1.11498e-19)
(6.23684 -1.31502 7.26028e-20)
(6.1423 -1.49164 6.7035e-20)
(6.04875 -1.67362 -2.17612e-19)
(5.92784 -1.95648 -1.14887e-19)
(5.85168 -2.16702 3.47038e-19)
(5.66844 -2.71233 -2.9499e-19)
(5.74361 -2.86282 -2.34713e-20)
(5.44056 -4.11062 -2.87117e-20)
(7.35127 -0.00559543 1.73441e-19)
(7.3504 -0.00622338 0)
(7.35059 -0.00522533 2.70733e-19)
(7.34974 -0.0053 0)
(7.34855 -0.00544343 3.53406e-19)
(7.34737 -0.00527862 -3.7214e-19)
(7.34608 -0.00501485 2.07252e-19)
(7.34465 -0.00471925 4.72074e-19)
(7.34311 -0.0043606 -5.20024e-19)
(7.34148 -0.00393584 -1.43105e-20)
(7.33978 -0.00345719 3.10729e-19)
(7.338 -0.00293039 0)
(7.33615 -0.0023582 3.91822e-19)
(7.33423 -0.00174426 -4.32681e-19)
(7.33225 -0.0010927 -4.77092e-19)
(7.3302 -0.00040737 2.5134e-19)
(7.3281 0.000307932 -8.55763e-21)
(7.32593 0.00104892 0)
(7.3237 0.00181131 -3.45848e-19)
(7.32141 0.0025902 -7.67542e-19)
(7.31906 0.00338041 2.12688e-19)
(7.31665 0.0041762 -4.63972e-19)
(7.31418 0.00497146 -2.53046e-19)
(7.31164 0.00575914 0)
(7.30903 0.00653183 3.05405e-19)
(7.30635 0.00728105 3.35357e-19)
(7.3036 0.00799778 0)
(7.30077 0.008672 0)
(7.29787 0.00929276 0)
(7.29488 0.00984819 6.02618e-21)
(7.29179 0.0103254 -2.57729e-19)
(7.28861 0.01071 -5.81749e-19)
(7.28533 0.010987 -3.2184e-19)
(7.28193 0.0111402 3.52084e-19)
(7.27842 0.0111517 -1.93134e-19)
(7.27477 0.0110029 -2.11896e-19)
(7.27097 0.0106734 2.36954e-19)
(7.26703 0.0101418 8.5363e-21)
(7.26291 0.00938501 -2.73991e-19)
(7.2586 0.00837886 -4.64326e-19)
(7.25409 0.00709745 1.65002e-19)
(7.24936 0.00551354 0)
(7.24438 0.00359807 -2.07543e-19)
(7.23914 0.00132074 2.14852e-19)
(7.23361 -0.00135104 -2.43144e-19)
(7.22775 -0.00445098 -2.67491e-19)
(7.22155 -0.00801541 -3.01772e-19)
(7.21496 -0.0120823 0)
(7.20795 -0.0166922 -1.84141e-19)
(7.2005 -0.0218879 1.97637e-19)
(7.19254 -0.027715 7.12481e-21)
(7.18405 -0.0342221 0)
(7.17497 -0.0414613 1.27764e-19)
(7.16526 -0.049488 3.03153e-19)
(7.15485 -0.0583636 -3.36827e-19)
(7.14369 -0.0681513 1.82506e-19)
(7.13171 -0.0789221 4.17716e-19)
(7.11885 -0.0907543 -4.63258e-19)
(7.10504 -0.10373 0)
(7.09018 -0.117944 -2.82535e-19)
(7.07419 -0.133497 -3.30938e-19)
(7.05698 -0.150501 -1.76712e-19)
(7.03843 -0.169086 -2.09261e-19)
(7.01845 -0.189392 1.04295e-19)
(6.99689 -0.21158 3.7384e-19)
(6.97361 -0.235832 -1.48486e-19)
(6.94847 -0.262353 4.89863e-19)
(6.92129 -0.291381 -1.88508e-19)
(6.89188 -0.323192 3.06591e-19)
(6.86003 -0.358103 1.25851e-19)
(6.82549 -0.396485 2.5569e-19)
(6.78799 -0.438777 0)
(6.74724 -0.4855 1.74346e-19)
(6.70288 -0.537273 -8.68895e-20)
(6.65453 -0.594858 -4.28355e-19)
(6.60173 -0.659154 7.06264e-21)
(6.54398 -0.731339 -2.8061e-19)
(6.48073 -0.812706 7.25246e-20)
(6.41126 -0.905358 1.81945e-19)
(6.3351 -1.01074 7.25706e-19)
(6.25083 -1.134 -1.2095e-19)
(6.1594 -1.2736 -6.79112e-19)
(6.05576 -1.44834 -3.11094e-19)
(5.95052 -1.63311 3.5248e-19)
(5.81739 -1.91331 7.34591e-19)
(5.72235 -2.136 -3.96216e-19)
(5.52523 -2.6801 3.9412e-19)
(5.56587 -2.85658 -2.70738e-20)
(5.23567 -4.11639 2.31483e-19)
(7.35158 -0.00455091 3.53462e-19)
(7.35057 -0.00516074 2.68275e-19)
(7.35071 -0.00424432 2.71329e-19)
(7.34991 -0.00420975 0)
(7.34874 -0.00427517 0)
(7.34758 -0.00407013 0)
(7.34632 -0.00375795 4.24161e-19)
(7.34491 -0.00340941 -2.16384e-19)
(7.34341 -0.00300057 2.51072e-19)
(7.34182 -0.00252603 -2.87235e-19)
(7.34015 -0.00199624 3.02496e-19)
(7.33841 -0.0014173 3.5068e-19)
(7.33659 -0.000792085 -3.69322e-19)
(7.3347 -0.000124059 0)
(7.33275 0.000582828 2.24293e-19)
(7.33074 0.00132477 -2.96524e-21)
(7.32866 0.00209801 -2.7689e-19)
(7.32651 0.00289839 -3.05133e-19)
(7.3243 0.00372162 3.4237e-19)
(7.32203 0.00456307 6.70826e-21)
(7.31969 0.0054176 2.10261e-19)
(7.31729 0.0062797 6.43668e-21)
(7.31481 0.00714329 2.50556e-19)
(7.31226 0.00800185 -2.71187e-19)
(7.30964 0.00884802 -6.09462e-19)
(7.30694 0.00967376 3.19153e-19)
(7.30416 0.0104704 3.70446e-19)
(7.3013 0.0112283 -5.82723e-19)
(7.29834 0.0119369 -2.14318e-19)
(7.29529 0.0125851 2.40909e-19)
(7.29213 0.0131603 -2.62449e-19)
(7.28886 0.0136492 7.14283e-21)
(7.28547 0.0140375 -3.1139e-19)
(7.28196 0.0143093 -6.96944e-19)
(7.27831 0.0144482 1.91387e-19)
(7.27451 0.0144363 -4.74289e-21)
(7.27054 0.0142541 -9.53156e-21)
(7.26641 0.0138815 7.55943e-19)
(7.26208 0.0132966 2.85056e-19)
(7.25754 0.0124764 1.61443e-19)
(7.25278 0.0113962 -1.65321e-19)
(7.24777 0.0100304 0)
(7.24249 0.00835107 2.09247e-19)
(7.23692 0.00632934 2.74848e-21)
(7.23103 0.00393439 2.50664e-19)
(7.22479 0.00113372 2.80978e-19)
(7.21817 -0.00210729 -3.03081e-19)
(7.21114 -0.00582516 0)
(7.20366 -0.0100584 -7.13505e-21)
(7.1957 -0.0148486 -9.88739e-21)
(7.18721 -0.0202395 -2.35278e-19)
(7.17814 -0.0262781 5.05843e-19)
(7.16844 -0.0330143 1.08988e-20)
(7.15808 -0.0405025 -3.16827e-19)