/*--------------------------------*- C++ -*----------------------------------*\
  =========                 |
  \\      /  F ield         | OpenFOAM: The Open Source CFD Toolbox
   \\    /   O peration     | Website:  https://openfoam.org
    \\  /    A nd           | Version:  11
     \\/     M anipulation  |
\*---------------------------------------------------------------------------*/
FoamFile
{
    format      ascii;
    class       volScalarField;
    location    "450";
    object      p;
}
// * * * * * * * * * * * * * * * * * * * * * * * * * * * * * * * * * * * * * //

dimensions      [0 2 -2 0 0 0 0];

internalField   nonuniform List<scalar> 
31595
(
0.197044
0.10567
0.158115
0.150763
0.175354
0.178636
0.197808
0.20663
0.222551
0.234226
0.249039
0.26216
0.276742
0.290752
0.305486
0.320118
0.335154
0.350261
0.365621
0.381093
0.396725
0.412447
0.42825
0.444084
0.45992
0.475709
0.491409
0.506974
0.522357
0.537509
0.552384
0.566941
0.581138
0.594942
0.608324
0.621264
0.633756
0.645799
0.657409
0.668614
0.679458
0.690002
0.70032
0.710506
0.720669
0.730935
0.741447
0.752361
0.76385
0.7761
0.789309
0.803688
0.819455
0.836842
0.856086
0.87743
0.901125
0.927426
0.956591
0.988879
1.02455
1.06387
1.10707
1.15442
1.20614
1.26245
1.32354
1.38955
1.46061
1.53675
1.61791
1.70395
1.7945
1.88909
1.98661
2.08646
2.18521
2.28393
2.37043
2.45805
2.49909
2.56594
2.4752
2.52636
2.08966
2.14921
0.9224
0.9273
-2.13014
0.158131
0.126679
0.142005
0.156823
0.170433
0.181027
0.195053
0.2072
0.220633
0.233563
0.247183
0.260697
0.274642
0.288686
0.303042
0.317571
0.332355
0.347329
0.362515
0.377877
0.393407
0.409075
0.42486
0.440729
0.456655
0.472602
0.488537
0.504422
0.520222
0.535903
0.551431
0.566776
0.581909
0.596812
0.61147
0.625878
0.64004
0.653969
0.667691
0.681248
0.694693
0.708094
0.721536
0.735119
0.748958
0.763185
0.777946
0.793404
0.809735
0.827129
0.84579
0.865934
0.887785
0.911583
0.937572
0.966009
0.997154
1.03128
1.06866
1.10957
1.1543
1.20313
1.25635
1.31422
1.37703
1.44503
1.51845
1.59751
1.68238
1.77315
1.86986
1.97244
2.08059
2.19397
2.31159
2.43284
2.55469
2.6777
2.79094
2.90563
2.9774
3.07374
3.01515
3.10092
2.68067
2.79703
1.52779
1.61871
-1.47036
0.1439
0.132537
0.137892
0.15693
0.169277
0.181022
0.193824
0.20654
0.219287
0.232263
0.245451
0.258849
0.272478
0.286346
0.300455
0.314806
0.329395
0.344217
0.359261
0.374517
0.38997
0.405602
0.421394
0.437324
0.453367
0.469501
0.485698
0.501933
0.518181
0.534417
0.550619
0.566771
0.582858
0.59887
0.614809
0.63068
0.646498
0.66229
0.678094
0.69396
0.709952
0.726147
0.742638
0.759532
0.77695
0.79503
0.813926
0.833803
0.854845
0.877245
0.901214
0.926975
0.954758
0.984813
1.01739
1.05277
1.09121
1.13301
1.17846
1.22785
1.2815
1.33972
1.40282
1.47112
1.54493
1.62454
1.71026
1.80234
1.90103
2.0065
2.11887
2.23815
2.36418
2.49669
2.6349
2.77819
2.92397
3.07233
3.21375
3.35709
3.46253
3.58979
3.57039
3.68944
3.30172
3.46701
2.16998
2.29803
-0.996457
0.141911
0.135134
0.137686
0.156115
0.169059
0.180477
0.192918
0.205453
0.217941
0.230646
0.243573
0.256722
0.270108
0.283747
0.297643
0.311798
0.326212
0.340882
0.355803
0.370966
0.386362
0.401977
0.4178
0.433813
0.450002
0.466347
0.482834
0.499445
0.516165
0.532978
0.549875
0.56685
0.583899
0.601025
0.61824
0.635563
0.653018
0.670643
0.688487
0.70661
0.725086
0.743999
0.763451
0.783556
0.804444
0.826258
0.849157
0.873314
0.898918
0.92617
0.955286
0.986497
1.02004
1.05618
1.09518
1.13732
1.18289
1.23219
1.28553
1.34325
1.40567
1.47313
1.54598
1.62458
1.70927
1.80042
1.89837
2.00344
2.11596
2.23616
2.36429
2.50044
2.64458
2.79655
2.9558
3.12175
3.29224
3.46705
3.63796
3.81169
3.95318
4.11363
4.13882
4.29173
3.94999
4.15987
2.84687
2.99353
-0.607368
0.142506
0.138335
0.138528
0.155788
0.16897
0.18
0.191985
0.204237
0.216441
0.228842
0.241488
0.254372
0.267506
0.280911
0.294591
0.308552
0.322794
0.337319
0.352124
0.367204
0.382554
0.398167
0.414035
0.430149
0.446499
0.463074
0.479867
0.496869
0.514074
0.531476
0.549076
0.566877
0.584888
0.603122
0.6216
0.640351
0.659414
0.678834
0.698671
0.718994
0.739885
0.761438
0.783763
0.806981
0.831229
0.856657
0.883432
0.911734
0.941756
0.973709
1.00782
1.04432
1.08346
1.12552
1.17077
1.21949
1.27202
1.32865
1.38973
1.45561
1.52664
1.60319
1.68566
1.77442
1.86989
1.97248
2.08258
2.20061
2.32692
2.4619
2.60585
2.75899
2.92145
3.09319
3.27386
3.46303
3.65891
3.86111
4.0626
4.26832
4.44768
4.64359
4.71703
4.90528
4.61894
4.86955
3.55433
3.82271
0.19271
0.14421
0.141912
0.140029
0.155814
0.168942
0.17954
0.190994
0.202881
0.214764
0.226833
0.239175
0.251778
0.264651
0.277815
0.291275
0.305039
0.319111
0.333494
0.348187
0.363192
0.378505
0.394124
0.410048
0.426272
0.442792
0.459608
0.476715
0.494115
0.511811
0.529806
0.548108
0.566732
0.585696
0.60502
0.62474
0.644891
0.665523
0.686693
0.708467
0.730925
0.754157
0.778265
0.803368
0.829594
0.857088
0.886007
0.916525
0.94883
0.983122
1.01962
1.05856
1.10018
1.14475
1.19254
1.24386
1.299
1.35829
1.42207
1.4907
1.56456
1.64401
1.72949
1.8214
1.92018
2.02628
2.14017
2.26231
2.39318
2.53323
2.68294
2.8427
3.0129
3.19379
3.38553
3.58791
3.80071
4.02254
4.25297
4.48604
4.72528
4.94419
5.17814
5.30314
5.52971
5.30755
5.59654
4.30551
4.73358
1.03711
0.145919
0.145423
0.141846
0.156026
0.168877
0.179031
0.189901
0.201359
0.212885
0.224601
0.236617
0.248923
0.261524
0.274436
0.287672
0.301236
0.315136
0.329375
0.343959
0.358888
0.374168
0.389798
0.405781
0.422119
0.438814
0.455872
0.473295
0.491094
0.509277
0.527858
0.546853
0.566285
0.58618
0.606572
0.627501
0.649015
0.671171
0.694034
0.717682
0.742202
0.767693
0.794265
0.822044
0.851167
0.881785
0.914064
0.948186
0.984344
1.02275
1.06363
1.10722
1.15378
1.20359
1.25693
1.31411
1.37546
1.44132
1.51204
1.58801
1.66963
1.75731
1.85149
1.95263
2.06121
2.17774
2.30272
2.43671
2.58024
2.73389
2.89817
3.07367
3.26085
3.46016
3.67191
3.89616
4.13288
4.38109
4.64043
4.90596
5.18017
5.44031
5.7152
5.89517
6.16478
6.01587
6.3459
5.10847
5.64025
1.60573
0.147359
0.148553
0.143727
0.156263
0.168679
0.178384
0.18865
0.199633
0.210772
0.222117
0.233787
0.245783
0.2581
0.270754
0.283756
0.297116
0.310839
0.324933
0.339405
0.354259
0.369502
0.385142
0.401183
0.417632
0.434501
0.451796
0.469531
0.487721
0.506382
0.525536
0.545206
0.565424
0.586225
0.607651
0.62975
0.652579
0.676205
0.700701
0.726152
0.752655
0.780316
0.809254
0.839602
0.871504
0.905121
0.940625
0.978204
1.01806
1.06042
1.1055
1.15357
1.20489
1.25974
1.31843
1.38128
1.44862
1.52083
1.59827
1.68135
1.7705
1.86616
1.96881
2.07894
2.19709
2.32381
2.45965
2.60526
2.76125
2.92825
3.10695
3.29799
3.50203
3.71965
3.9514
4.19757
4.45839
4.73327
5.02204
5.32076
5.63119
5.93403
6.2525
6.49049
6.80772
6.74021
7.11533
5.96281
6.55787
2.10499
0.148345
0.151089
0.145453
0.156387
0.168254
0.177515
0.187181
0.19766
0.208389
0.21935
0.230662
0.242334
0.254357
0.266744
0.279507
0.292656
0.306197
0.32014
0.334495
0.34927
0.364474
0.380118
0.396212
0.412769
0.429802
0.447327
0.465363
0.483931
0.503053
0.52276
0.543082
0.564059
0.585731
0.608151
0.631377
0.65547
0.680506
0.706568
0.733749
0.762151
0.791891
0.823095
0.855902
0.890467
0.926954
0.965546
1.00644
1.04984
1.09599
1.14511
1.19748
1.25337
1.31307
1.37692
1.44523
1.51836
1.5967
1.68065
1.77062
1.86708
1.97051
2.08141
2.20031
2.3278
2.46448
2.61099
2.768
2.93623
3.11642
3.30935
3.51581
3.73659
3.97246
4.22418
4.49231
4.77736
5.07916
5.39781
5.73031
6.07798
6.42467
6.78881
7.08702
7.45532
7.47494
7.89654
6.8485
7.49836
3.15417
0.148818
0.152918
0.146858
0.156286
0.167522
0.176346
0.185433
0.195392
0.205696
0.216265
0.22721
0.238547
0.250268
0.26238
0.274895
0.287824
0.301177
0.314962
0.329194
0.343881
0.359037
0.374676
0.390815
0.407466
0.424653
0.442394
0.460713
0.479638
0.4992
0.519434
0.540377
0.562077
0.584582
0.607951
0.632248
0.657548
0.68393
0.711486
0.740314
0.770527
0.802248
0.835611
0.870763
0.907865
0.947091
0.98863
1.03269
1.07948
1.12924
1.18223
1.23872
1.29899
1.36335
1.43214
1.5057
1.58441
1.66866
1.75888
1.85552
1.95905
2.06999
2.18888
2.31631
2.45288
2.59927
2.75618
2.92435
3.10457
3.29771
3.50462
3.72625
3.96356
4.21752
4.48907
4.77909
5.08836
5.41719
5.766
6.13271
6.51846
6.91003
7.3219
7.68256
8.10619
8.2189
8.6915
7.76338
8.47348
4.30659
0.14874
0.153973
0.147816
0.155867
0.166416
0.174813
0.183349
0.192786
0.202655
0.212828
0.223398
0.234394
0.245804
0.257632
0.269891
0.282592
0.295746
0.309365
0.323462
0.33805
0.353147
0.368769
0.384935
0.401667
0.418988
0.436924
0.455503
0.474762
0.494733
0.515458
0.536985
0.559364
0.582654
0.60692
0.632231
0.658669
0.686321
0.715288
0.745674
0.7776
0.811195
0.846602
0.883974
0.923479
0.9653
1.00963
1.05669
1.1067
1.1599
1.21657
1.27697
1.34141
1.41021
1.48372
1.56229
1.64632
1.73623
1.83245
1.93546
2.04578
2.16393
2.29051
2.42613
2.57146
2.72721
2.89415
3.0731
3.26494
3.47061
3.69111
3.92752
4.18096
4.45258
4.74358
5.05511
5.3883
5.7439
6.12276
6.52372
6.948
7.38509
7.84652
8.27162
8.75555
8.96754
9.50098
8.71544
9.47939
5.12976
0.148104
0.154228
0.148235
0.155055
0.164883
0.172861
0.180879
0.1898
0.199231
0.209005
0.219199
0.229847
0.240938
0.252474
0.264469
0.276933
0.289877
0.303317
0.317267
0.331743
0.346764
0.362353
0.37853
0.395322
0.412754
0.43086
0.449673
0.46923
0.489576
0.510756
0.532823
0.555834
0.579855
0.604955
0.631214
0.658718
0.687563
0.717853
0.749703
0.783239
0.818597
0.855927
0.89539
0.937161
0.981429
1.0284
1.07829
1.13134
1.1878
1.24794
1.31205
1.38045
1.45346
1.53145
1.61479
1.70389
1.79918
1.90113
2.01023
2.12703
2.25209
2.38602
2.5295
2.68323
2.84798
3.02457
3.21391
3.41695
3.63474
3.86839
4.11912
4.38823
4.67706
4.98704
5.31963
5.67631
6.05831
6.46695
6.90197
7.36491
7.84779
8.35998
8.85089
9.39884
9.71499
10.3167
9.70015
10.5098
5.99419
0.146911
0.153675
0.148049
0.153791
0.162881
0.170446
0.17798
0.1864
0.195393
0.204769
0.214587
0.224882
0.235648
0.246886
0.258607
0.270823
0.283548
0.296795
0.310583
0.324933
0.339862
0.355398
0.371565
0.388393
0.405912
0.42416
0.443174
0.462998
0.483682
0.505273
0.527835
0.551427
0.576121
0.601995
0.629134
0.65763
0.687586
0.719112
0.752331
0.787374
0.824385
0.863521
0.904949
0.948852
0.995426
1.04488
1.09745
1.15337
1.21291
1.27634
1.34398
1.41613
1.49315
1.5754
1.66328
1.75722
1.85766
1.96509
2.08003
2.20305
2.33474
2.47577
2.62682
2.78866
2.9621
3.14806
3.34747
3.56141
3.791
4.03748
4.3022
4.58664
4.89235
5.221
5.57435
5.95424
6.36238
6.8006
7.26956
7.77122
8.30002
8.86368
9.42099
10.035
10.458
11.1293
10.6954
11.5497
7.57928
0.145165
0.15232
0.147212
0.152026
0.160378
0.167533
0.174616
0.182552
0.19111
0.200091
0.209532
0.219472
0.229908
0.240839
0.252275
0.264232
0.276723
0.289764
0.303374
0.317577
0.332395
0.347854
0.363985
0.380821
0.398396
0.416752
0.435931
0.455981
0.476955
0.49891
0.521912
0.546026
0.57133
0.597908
0.62585
0.655256
0.686233
0.718899
0.753383
0.789822
0.828366
0.869178
0.912434
0.958323
1.00705
1.05883
1.1139
1.17251
1.23493
1.30146
1.3724
1.44809
1.52888
1.61516
1.70733
1.80584
1.91115
2.02377
2.14425
2.27318
2.41118
2.55895
2.71722
2.88679
3.06855
3.26344
3.47251
3.69689
3.93781
4.19664
4.47484
4.77408
5.0961
5.44283
5.81635
6.21885
6.65255
7.11983
7.62226
8.1624
8.73699
9.35284
9.97736
10.6609
11.1946
11.9457
11.7097
12.6245
8.89069
0.142871
0.150182
0.145693
0.149724
0.157349
0.164096
0.170758
0.17823
0.186359
0.194947
0.204013
0.213595
0.223694
0.234309
0.245452
0.257136
0.269377
0.282194
0.295607
0.309642
0.324322
0.33968
0.355747
0.37256
0.390156
0.408582
0.427885
0.448116
0.469332
0.491594
0.514975
0.539548
0.565393
0.592599
0.621262
0.651488
0.683391
0.717094
0.75273
0.790445
0.830394
0.872747
0.917685
0.965403
1.01611
1.07004
1.12743
1.18853
1.25364
1.32304
1.39706
1.47604
1.56035
1.65039
1.74657
1.84935
1.95923
2.07672
2.20239
2.33687
2.4808
2.6349
2.79996
2.97683
3.16642
3.36975
3.58793
3.82217
4.0738
4.3443
4.63529
4.94856
5.28608
5.65003
6.04277
6.46689
6.92511
7.42036
7.95512
8.5327
9.152
9.81957
10.5107
11.2658
11.9114
12.7514
12.729
13.7175
10.0898
0.140036
0.147283
0.143472
0.146858
0.153776
0.160116
0.166383
0.173413
0.181121
0.18932
0.198011
0.207233
0.216989
0.227281
0.238118
0.249516
0.261492
0.274067
0.287263
0.301106
0.315624
0.330852
0.346824
0.363579
0.381161
0.399616
0.418997
0.439359
0.460765
0.483282
0.506982
0.531945
0.558259
0.586015
0.615316
0.646273
0.679005
0.71364
0.750319
0.789191
0.83042
0.874179
0.920657
0.970056
1.02259
1.0785
1.13803
1.20144
1.26903
1.34111
1.41799
1.50004
1.58764
1.68118
1.78112
1.88791
2.00207
2.12414
2.25471
2.39441
2.54393
2.70403
2.87552
3.0593
3.25632
3.46767
3.6945
3.93813
4.19999
4.48164
4.78484
5.11156
5.46395
5.84444
6.25568
6.70065
7.18254
7.70488
8.27104
8.88513
9.54813
10.2667
11.0233
11.8504
12.6079
13.5392
13.741
14.8038
11.6678
0.136664
0.143653
0.140542
0.143406
0.149648
0.155582
0.161475
0.168083
0.175379
0.183191
0.191509
0.200368
0.209776
0.219734
0.230254
0.241351
0.253045
0.265358
0.278313
0.29194
0.306268
0.321335
0.337176
0.353838
0.371363
0.389804
0.409215
0.429657
0.451197
0.473906
0.497861
0.523143
0.549849
0.578073
0.607925
0.639517
0.672976
0.708436
0.746042
0.78595
0.828327
0.873355
0.921227
0.972151
1.02635
1.08406
1.14555
1.21109
1.28096
1.35549
1.43503
1.51991
1.61056
1.70737
1.81079
1.92133
2.03948
2.16583
2.30097
2.44558
2.60036
2.76609
2.94364
3.13392
3.33796
3.55688
3.79193
4.04445
4.31599
4.60823
4.92306
5.26258
5.62915
6.02543
6.45438
6.91933
7.42396
7.9724
8.56887
9.21837
9.92386
10.6925
11.5134
12.4127
13.2815
14.3088
14.741
15.8866
13.3259
0.132757
0.139321
0.136902
0.139354
0.144955
0.150486
0.156023
0.162229
0.169121
0.176549
0.184494
0.192986
0.202038
0.211652
0.221841
0.232621
0.244013
0.256041
0.26873
0.282112
0.296219
0.31109
0.326764
0.343291
0.360714
0.379092
0.398481
0.418947
0.44056
0.463392
0.487528
0.513055
0.54007
0.568672
0.598976
0.631104
0.665181
0.701349
0.739758
0.780569
0.823954
0.870101
0.919207
0.971489
1.02717
1.08651
1.14976
1.2172
1.28914
1.36591
1.44784
1.53531
1.62873
1.72851
1.83514
1.94909
2.07091
2.20118
2.34054
2.48965
2.64927
2.8202
3.00333
3.19962
3.41014
3.63607
3.8787
4.13947
4.41999
4.72205
5.04766
5.39905
5.7788
6.18978
6.63522
7.11882
7.64472
8.21763
8.84261
9.52561
10.2714
11.0881
11.9708
12.9416
13.9192
15.0483
15.7153
16.9635
14.7868
0.128316
0.134321
0.132558
0.134695
0.139696
0.144827
0.150022
0.155843
0.162339
0.169386
0.176957
0.185079
0.193767
0.203026
0.212869
0.223314
0.234384
0.246103
0.2585
0.271607
0.28546
0.300099
0.315567
0.331913
0.349191
0.367455
0.386768
0.407198
0.428819
0.451709
0.475953
0.501644
0.528881
0.557773
0.588437
0.620995
0.65558
0.692339
0.731427
0.773008
0.817262
0.86438
0.914565
0.96804
1.02504
1.08581
1.15063
1.21978
1.29357
1.37234
1.45644
1.54625
1.64219
1.74468
1.85421
1.97129
2.09647
2.23034
2.37356
2.52682
2.69089
2.86661
3.05489
3.25674
3.47326
3.70567
3.95533
4.22375
4.5126
4.82379
5.15941
5.52188
5.91391
6.33859
6.79942
7.30044
7.84624
8.44208
9.09382
9.80833
10.5921
11.4544
12.3957
13.4356
14.5173
15.748
16.6474
18.0043
16.4281
0.123339
0.128687
0.127523
0.129424
0.133872
0.138607
0.143472
0.148923
0.155032
0.161697
0.168892
0.17664
0.184955
0.193846
0.203328
0.21342
0.224145
0.235531
0.247607
0.260408
0.273972
0.288341
0.303561
0.319684
0.336763
0.35486
0.37404
0.394373
0.415937
0.438812
0.463088
0.488862
0.516238
0.545325
0.576246
0.609131
0.644114
0.681347
0.720988
0.763209
0.808191
0.856133
0.907243
0.961747
1.01989
1.08192
1.14811
1.21877
1.29422
1.37477
1.46082
1.55273
1.65093
1.75588
1.86805
1.98797
2.1162
2.25337
2.40013
2.5572
2.72538
2.90552
3.09856
3.30555
3.52763
3.76607
4.02227
4.2978
4.59443
4.91413
5.25913
5.63195
6.03547
6.47298
6.94826
7.46564
8.03014
8.64755
9.3245
10.0687
10.8884
11.7941
12.7909
13.8973
15.0781
16.4098
17.5345
19.0033
18.1532
0.117827
0.122451
0.121816
0.123546
0.127486
0.131833
0.136374
0.141469
0.147196
0.153481
0.160297
0.167663
0.175595
0.184104
0.193207
0.202925
0.213281
0.224305
0.236029
0.24849
0.261727
0.275784
0.290712
0.306561
0.32339
0.341263
0.360246
0.380415
0.401848
0.424632
0.448859
0.474627
0.502047
0.531233
0.562305
0.5954
0.630661
0.668241
0.7083
0.751016
0.796575
0.84518
0.897044
0.952399
1.01149
1.07458
1.14195
1.2139
1.29075
1.37286
1.46058
1.55432
1.65451
1.76161
1.8761
1.99853
2.12948
2.26956
2.41946
2.57993
2.75176
2.93585
3.13316
3.34475
3.57182
3.81566
4.07773
4.35966
4.66328
4.99064
5.34406
5.7262
6.14007
6.58915
7.07744
7.60958
8.19097
8.8279
9.52769
10.299
11.1514
12.0969
13.1448
14.3137
15.5868
17.0193
18.3583
19.9555
19.6567
0.111774
0.11565
0.115461
0.117067
0.120548
0.124515
0.128739
0.133486
0.138838
0.144742
0.151174
0.15815
0.165688
0.1738
0.182506
0.191827
0.201789
0.212423
0.223763
0.235848
0.248719
0.262422
0.277009
0.292535
0.309059
0.326649
0.345374
0.365311
0.386541
0.409157
0.43325
0.458925
0.486295
0.515477
0.546598
0.579794
0.615211
0.653008
0.693351
0.736421
0.782408
0.831518
0.883972
0.940002
0.99986
1.06382
1.13215
1.20518
1.28323
1.36664
1.45581
1.55113
1.65303
1.762
1.87852
2.00315
2.13648
2.27914
2.43184
2.59532
2.77041
2.95801
3.15913
3.37485
3.60638
3.85507
4.12243
4.41012
4.72003
5.05428
5.41531
5.80586
6.22908
6.6886
7.18865
7.73412
8.33076
8.98531
9.70573
10.5015
11.3835
12.365
13.4591
14.6853
16.0419
17.569
19.1035
20.8314
21.1891
0.105183
0.108318
0.108486
0.110002
0.11307
0.11667
0.120578
0.124986
0.129966
0.135487
0.141529
0.148105
0.155235
0.162934
0.171222
0.180123
0.189664
0.199878
0.210801
0.222472
0.234936
0.24824
0.262438
0.277588
0.293751
0.310996
0.329397
0.349032
0.369986
0.392352
0.416229
0.441722
0.468945
0.49802
0.529079
0.56226
0.597713
0.635601
0.676093
0.719375
0.765641
0.8151
0.867978
0.924512
0.984959
1.04959
1.1187
1.1926
1.27162
1.35612
1.44649
1.54314
1.64651
1.75707
1.87535
2.00189
2.13729
2.28221
2.43736
2.6035
2.78148
2.97222
3.17673
3.39614
3.63168
3.88474
4.15685
4.44973
4.76533
5.10584
5.47374
5.8719
6.30358
6.77258
7.28328
7.84082
8.45126
9.12176
9.86083
10.6786
11.5873
12.6014
13.7371
15.0153
16.4466
18.0619
19.7703
21.6282
22.609
0.0980539
0.100489
0.100925
0.10237
0.105068
0.108313
0.111908
0.115979
0.12059
0.125723
0.131367
0.137533
0.14424
0.151507
0.159355
0.16781
0.1769
0.186662
0.19713
0.208347
0.220359
0.233216
0.246974
0.261692
0.277434
0.29427
0.312277
0.331535
0.352132
0.374163
0.397731
0.422942
0.449914
0.478774
0.509655
0.542697
0.578054
0.615895
0.65639
0.699729
0.74611
0.795745
0.848865
0.905711
0.966544
1.03164
1.1013
1.17583
1.25558
1.34091
1.43221
1.5299
1.63442
1.74626
1.86595
1.99404
2.13114
2.27792
2.43509
2.60344
2.78383
2.97718
3.18454
3.40705
3.64596
3.90269
4.17881
4.47607
4.79648
5.14225
5.51595
5.92054
6.35936
6.83632
7.35598
7.92368
8.54574
9.22965
9.9844
10.8208
11.752
12.7937
13.9646
15.2878
16.783
18.4781
20.3365
22.3274
23.7775
0.0903933
0.0921995
0.0928162
0.0941947
0.0965637
0.0994673
0.10275
0.106486
0.110727
0.115468
0.120703
0.126445
0.132714
0.139529
0.146915
0.154897
0.163507
0.172781
0.182758
0.193481
0.204998
0.21736
0.230624
0.244853
0.260113
0.276475
0.294017
0.312825
0.332987
0.354599
0.377767
0.402602
0.429223
0.457759
0.48835
0.521134
0.556271
0.593932
0.634289
0.677536
0.723877
0.773528
0.82672
0.8837
0.944731
1.0101
1.0801
1.15505
1.23531
1.32123
1.41322
1.51169
1.61711
1.72996
1.85077
1.98011
2.1186
2.2669
2.42576
2.59596
2.77836
2.97393
3.18372
3.40888
3.65069
3.91059
4.19018
4.49125
4.81582
5.16618
5.54495
5.95514
6.40019
6.88412
7.41162
7.9882
8.62039
9.31598
10.0844
10.9369
11.8875
12.953
14.154
15.5156
17.0645
18.8284
20.8086
22.9211
24.8127
0.0822131
0.0834839
0.0842009
0.0855072
0.0875813
0.0901584
0.0931268
0.096526
0.100394
0.104736
0.109552
0.114856
0.120667
0.127009
0.133907
0.141388
0.149486
0.158238
0.167684
0.17787
0.188844
0.200661
0.213378
0.22706
0.241773
0.257593
0.2746
0.292878
0.31252
0.333627
0.356304
0.380664
0.406831
0.434933
0.465111
0.497514
0.532302
0.569643
0.609721
0.652728
0.698872
0.748371
0.801462
0.858393
0.919434
0.98487
1.05501
1.13017
1.21071
1.29699
1.38942
1.48842
1.59447
1.70804
1.82969
1.95998
2.09954
2.24904
2.40924
2.58092
2.76497
2.96236
3.17415
3.40152
3.64575
3.90831
4.19083
4.49511
4.82322
5.17749
5.56057
5.97552
6.42589
6.91575
7.44989
8.03397
8.67468
9.38007
10.1598
11.0257
11.9921
13.0769
14.3021
15.6942
17.2851
19.1041
21.1759
23.3918
25.5727
0.0735337
0.0743792
0.0751252
0.0763436
0.0781505
0.0804147
0.0830669
0.0861242
0.0896142
0.0935473
0.0979306
0.102779
0.108113
0.113958
0.120341
0.12729
0.134842
0.143034
0.151908
0.161511
0.171893
0.18311
0.195222
0.208293
0.222394
0.237601
0.253994
0.271662
0.290699
0.311205
0.333289
0.357067
0.382665
0.410216
0.439857
0.471745
0.506038
0.542913
0.58255
0.625148
0.670915
0.720075
0.772867
0.829542
0.890373
0.955649
1.02568
1.10079
1.18133
1.26769
1.36026
1.45948
1.56581
1.67976
1.80186
1.93269
2.07289
2.22315
2.38419
2.55683
2.74198
2.94058
3.15373
3.38259
3.62849
3.89289
4.17743
4.48393
4.81448
5.17145
5.55749
5.97572
6.42971
6.92357
7.46218
8.05126
8.69762
9.40942
10.1965
11.071
12.0476
13.1448
14.3852
15.7969
17.4145
19.2705
21.4029
23.7041
26.0306
0.0643858
0.0649224
0.0656382
0.0667469
0.0683066
0.07027
0.0726026
0.0753109
0.0784147
0.0819281
0.0858638
0.0902387
0.0950749
0.100398
0.106237
0.112624
0.119594
0.127188
0.135449
0.144424
0.154166
0.164731
0.17618
0.188581
0.202003
0.216525
0.23223
0.249208
0.267553
0.28737
0.308768
0.331863
0.356787
0.38367
0.41266
0.443906
0.477577
0.513846
0.552899
0.594936
0.64017
0.688827
0.741147
0.797387
0.857822
0.922744
0.992463
1.06731
1.14765
1.23385
1.32633
1.42552
1.53189
1.64595
1.76823
1.89934
2.03989
2.19058
2.35217
2.52546
2.71135
2.91082
3.12496
3.35494
3.60211
3.86793
4.15404
4.46229
4.79479
5.15391
5.54235
5.96322
6.42014
6.91726
7.45951
8.05264
8.70355
9.42047
10.2134
11.0945
12.0789
13.1851
14.4365
15.8615
17.4959
19.3742
21.5378
23.8897
26.2272
0.0548118
0.0551515
0.0557904
0.0567633
0.058088
0.0597591
0.0617669
0.0641163
0.0668227
0.0699031
0.0733738
0.0772544
0.0815686
0.0863438
0.0916098
0.0974007
0.103754
0.110709
0.118312
0.126612
0.135661
0.145518
0.156246
0.167911
0.180587
0.194352
0.209291
0.225494
0.243059
0.262093
0.282704
0.305013
0.329148
0.355248
0.383457
0.413934
0.446842
0.48236
0.520675
0.561994
0.606528
0.654506
0.706173
0.761787
0.821627
0.885986
0.95518
1.02954
1.10944
1.19525
1.28738
1.38628
1.49242
1.6063
1.72848
1.85954
2.00013
2.15093
2.31271
2.48628
2.67255
2.87249
3.0872
3.31787
3.56584
3.83258
4.11975
4.42921
4.76306
5.12369
5.51381
5.93658
6.39557
6.895
7.43979
8.03574
8.68975
9.41011
10.2068
11.0921
12.0811
13.1923
14.4491
15.8799
17.5199
19.4037
21.5673
23.9156
26.2145
0.0448712
0.045106
0.0456344
0.046446
0.0475397
0.0489221
0.0505979
0.0525756
0.0548711
0.0575025
0.060489
0.0638529
0.0676196
0.0718177
0.0764791
0.0816388
0.0873354
0.0936106
0.10051
0.108085
0.116389
0.125481
0.135424
0.146286
0.158143
0.171074
0.185165
0.200506
0.217199
0.235347
0.255065
0.276474
0.299704
0.324892
0.352189
0.381749
0.413746
0.448354
0.485768
0.526189
0.569835
0.616938
0.667744
0.722513
0.781526
0.84508
0.913492
0.987101
1.06627
1.15138
1.24285
1.34112
1.44666
1.55999
1.68166
1.81226
1.95242
2.10286
2.26431
2.43761
2.62365
2.82342
3.038
3.26861
3.51656
3.78333
4.07056
4.38014
4.71416
5.07498
5.46532
5.88831
6.34752
6.84713
7.39205
7.98803
8.64194
9.36197
10.158
11.0422
12.0294
13.1377
14.39
15.8139
17.4423
19.3081
21.4352
23.7298
25.9568
0.034638
0.0348264
0.0352222
0.0358522
0.0367122
0.0378032
0.0391367
0.0407289
0.0425972
0.0447612
0.0472425
0.0500659
0.0532586
0.0568505
0.0608748
0.0653678
0.0703693
0.0759223
0.0820739
0.0888743
0.0963791
0.104648
0.113746
0.123742
0.13471
0.146732
0.159895
0.174291
0.19002
0.207189
0.225913
0.246314
0.268524
0.292686
0.318943
0.347459
0.378403
0.411958
0.448315
0.487681
0.530274
0.576328
0.626091
0.679827
0.737818
0.800364
0.867783
0.940416
1.01863
1.10281
1.19337
1.29075
1.39544
1.50795
1.62883
1.75866
1.89811
2.04785
2.20865
2.38134
2.5668
2.76603
2.9801
3.21023
3.45773
3.72408
4.01091
4.32009
4.65371
5.01412
5.40402
5.82649
6.28511
6.78402
7.32806
7.9229
8.57532
9.29337
10.0868
10.9674
11.9495
13.0508
14.2929
15.702
17.3067
19.1375
21.1957
23.3983
25.3888
0.0241962
0.0243517
0.0246031
0.0250393
0.025657
0.0264464
0.027424
0.0286137
0.030036
0.0317118
0.0336646
0.0359212
0.0385109
0.041465
0.044818
0.0486073
0.0528732
0.0576599
0.063015
0.0689904
0.0756419
0.0830288
0.091217
0.100277
0.110284
0.12132
0.133472
0.146832
0.161504
0.177595
0.19522
0.214503
0.235576
0.258581
0.283669
0.311
0.340747
0.373094
0.408235
0.446376
0.487739
0.532559
0.581087
0.633588
0.690346
0.751663
0.817861
0.889282
0.966292
1.04928
1.13867
1.2349
1.33845
1.44983
1.56961
1.69836
1.83675
1.98546
2.14525
2.31694
2.50143
2.6997
2.91284
3.14204
3.38861
3.65402
3.93991
4.24812
4.58073
4.94007
5.32882
5.75002
6.2072
6.70447
7.24656
7.83908
8.48864
9.20312
9.99199
10.8666
11.8409
12.9316
14.1585
15.5464
17.1173
18.9003
20.8631
22.9584
24.6061
0.0136337
0.0137247
0.0138306
0.0140693
0.0144303
0.0149004
0.0155045
0.016273
0.0172285
0.0183923
0.0197909
0.0214532
0.0234098
0.0256933
0.0283393
0.031386
0.0348748
0.0388502
0.0433608
0.0484581
0.0541989
0.0606443
0.0678592
0.0759138
0.0848845
0.0948535
0.105909
0.118145
0.131662
0.146569
0.162985
0.181033
0.200845
0.222564
0.246345
0.272345
0.30074
0.331716
0.365466
0.402201
0.442143
0.485529
0.532611
0.583655
0.638949
0.698793
0.763512
0.833449
0.908972
0.990474
1.07837
1.17311
1.27517
1.38507
1.50335
1.63061
1.7675
1.91471
2.07299
2.24316
2.42611
2.62282
2.83437
3.06193
3.30682
3.57047
3.85452
4.16079
4.4913
4.84837
5.23464
5.65309
6.10719
6.60094
7.13897
7.72672
8.37061
9.07828
9.85876
10.723
11.6839
12.7573
13.9608
15.3173
16.8404
18.5614
20.4011
22.3846
23.575
0.00303284
0.00299155
0.00296363
0.00300606
0.00308834
0.00321471
0.00342498
0.00375192
0.0042166
0.00484298
0.00566029
0.00669902
0.007991
0.0095702
0.0114729
0.0137378
0.0164074
0.0195265
0.0231437
0.0273114
0.0320863
0.0375286
0.0437045
0.0506854
0.0585467
0.0673705
0.0772456
0.0882664
0.100535
0.11416
0.129258
0.145956
0.164387
0.184696
0.207034
0.231562
0.25846
0.287909
0.320109
0.355269
0.393613
0.435378
0.48082
0.530205
0.583822
0.641975
0.704988
0.773207
0.846998
0.926756
1.0129
1.10587
1.20615
1.31426
1.43075
1.5562
1.69126
1.83663
1.99304
2.16131
2.34232
2.53706
2.74658
2.97204
3.21474
3.47612
3.75777
4.06148
4.38924
4.74333
5.12634
5.54118
5.99122
6.48035
7.01307
7.59463
8.2312
8.93006
9.69981
10.5507
11.4946
12.5463
13.7205
15.0383
16.5025
18.1504
19.8403
21.7023
22.3339
-0.00753258
-0.00779899
-0.00793578
-0.00808712
-0.00831338
-0.00856035
-0.00876674
-0.00890489
-0.00895686
-0.00889611
-0.00868972
-0.00830532
-0.00771033
-0.00687069
-0.00574895
-0.00430598
-0.00249879
-0.000282581
0.00239113
0.00557547
0.00932671
0.0137052
0.0187773
0.024613
0.0312891
0.0388869
0.0474955
0.0572095
0.0681299
0.0803674
0.094041
0.109273
0.126198
0.144962
0.165719
0.188632
0.213875
0.241636
0.272113
0.305518
0.342075
0.382025
0.425621
0.473133
0.52485
0.581078
0.642141
0.708387
0.780182
0.85792
0.942021
1.03293
1.13113
1.23713
1.35148
1.47477
1.60764
1.75077
1.90492
2.07087
2.24952
2.44182
2.64881
2.87167
3.11165
3.37017
3.6488
3.9493
4.2736
4.62395
5.00285
5.41315
5.85812
6.3415
6.86764
7.44157
8.06917
8.75732
9.51406
10.3489
11.2726
12.2985
13.438
14.7108
16.1061
17.6713
19.1876
20.9207
21.0412
-0.0179973
-0.0185949
-0.0188013
-0.0191455
-0.0197183
-0.0203725
-0.0210207
-0.0216495
-0.022247
-0.0227815
-0.0232161
-0.0235181
-0.0236545
-0.02359
-0.0232875
-0.0227063
-0.0218052
-0.0205387
-0.0188574
-0.0167094
-0.0140395
-0.0107867
-0.0068852
-0.00226503
0.00314953
0.00944018
0.0166952
0.0250096
0.0344845
0.0452304
0.0573627
0.0710086
0.086304
0.103393
0.122425
0.143569
0.167002
0.192909
0.221489
0.252954
0.28753
0.325459
0.366996
0.41241
0.461992
0.516047
0.574902
0.638904
0.70842
0.783844
0.865595
0.954118
1.04989
1.15342
1.26526
1.38599
1.51625
1.65671
1.80811
1.97126
2.14701
2.33631
2.54019
2.7598
2.99637
3.25128
3.52609
3.82248
4.14238
4.48794
4.86157
5.26605
5.70451
6.18055
6.69831
7.26257
7.87886
8.55362
9.29424
10.1095
11.0086
12.0037
13.1023
14.3233
15.6399
17.1166
18.4415
20.0555
19.5457
-0.0283036
-0.0293408
-0.0295644
-0.0301062
-0.0310721
-0.0321705
-0.0332867
-0.0344343
-0.0356081
-0.0367691
-0.0378766
-0.0388977
-0.0397997
-0.0405474
-0.0411023
-0.0414242
-0.0414724
-0.0412017
-0.0405623
-0.0395051
-0.0379737
-0.0359069
-0.0332416
-0.0299074
-0.0258294
-0.0209269
-0.0151105
-0.00828845
-0.000357436
0.00879059
0.0192741
0.0312172
0.0447553
0.0600317
0.0772049
0.0964368
0.117901
0.14179
0.1683
0.197646
0.230055
0.265767
0.305038
0.348141
0.395364
0.447015
0.50342
0.564926
0.631901
0.70474
0.783857
0.8697
0.962741
1.06349
1.17249
1.29032
1.41761
1.55503
1.70332
1.86325
2.03567
2.22153
2.42183
2.6377
2.87033
3.12109
3.39148
3.68313
3.99793
4.33794
4.7055
5.10327
5.53424
6.00184
6.50999
7.06316
7.66654
8.32605
9.04841
9.84145
10.7131
11.6738
12.7269
13.8915
15.122
16.5062
17.6263
19.1241
17.9758
-0.0384012
-0.0399792
-0.0401557
-0.0409081
-0.0423215
-0.0439027
-0.045515
-0.0472117
-0.0489947
-0.0508152
-0.0526284
-0.0544032
-0.0561061
-0.0577024
-0.0591533
-0.06042
-0.0614611
-0.0622325
-0.0626866
-0.0627723
-0.0624366
-0.0616183
-0.0602548
-0.0582784
-0.0556135
-0.0521798
-0.0478913
-0.0426542
-0.036367
-0.0289232
-0.0202041
-0.0100845
0.00156952
0.0149022
0.0300683
0.0472323
0.0665704
0.0882725
0.112537
0.139577
0.169622
0.202912
0.239704
0.280272
0.324902
0.373906
0.427607
0.486354
0.550514
0.62048
0.696668
0.779519
0.869509
0.967139
1.07295
1.18752
1.31147
1.44546
1.59022
1.74651
1.91517
2.09711
2.29333
2.50492
2.73307
2.97909
3.24443
3.53068
3.83966
4.17335
4.53399
4.92412
5.34658
5.80461
6.30188
6.84258
7.43144
8.07388
8.77585
9.54426
10.3854
11.3084
12.3117
13.4156
14.5528
15.8402
16.7451
18.1266
16.543
-0.0482451
-0.0504481
-0.0505047
-0.0514916
-0.0534134
-0.0555166
-0.057654
-0.0599329
-0.0623602
-0.0648737
-0.0674263
-0.0699881
-0.0725276
-0.0750098
-0.0773954
-0.0796476
-0.0817244
-0.0835833
-0.0851794
-0.0864616
-0.0873776
-0.0878681
-0.0878736
-0.0873245
-0.0861477
-0.0842646
-0.0815901
-0.078033
-0.0734896
-0.0678564
-0.0610141
-0.0528392
-0.0431995