/*--------------------------------*- C++ -*----------------------------------*\
  =========                 |
  \\      /  F ield         | OpenFOAM: The Open Source CFD Toolbox
   \\    /   O peration     | Website:  https://openfoam.org
    \\  /    A nd           | Version:  11
     \\/     M anipulation  |
\*---------------------------------------------------------------------------*/
FoamFile
{
    format      ascii;
    class       volScalarField;
    location    "450";
    object      p;
}
// * * * * * * * * * * * * * * * * * * * * * * * * * * * * * * * * * * * * * //

dimensions      [0 2 -2 0 0 0 0];

internalField   nonuniform List<scalar> 
31595
(
12.5216
8.47671
9.3381
9.73617
10.3342
10.6375
11.2194
11.7071
12.2678
12.8247
13.4215
14.0331
14.6742
15.3388
16.0314
16.7513
17.5004
18.2794
19.0897
19.9321
20.8079
21.7181
22.6639
23.6462
24.6663
25.7251
26.8238
27.9636
29.1456
30.3708
31.6405
32.956
34.3187
35.7297
37.1906
38.7029
40.2684
41.8888
43.566
45.3021
47.0994
48.9604
50.8877
52.8842
54.9531
57.0976
59.3213
61.6282
64.0225
66.5086
69.0912
71.7756
74.5671
77.4715
80.4953
83.6448
86.9274
90.3506
93.9225
97.6518
101.548
105.621
109.881
114.341
119.012
123.909
129.044
134.435
140.098
146.051
152.314
158.908
165.857
173.185
180.917
189.082
197.71
206.829
216.468
226.654
237.406
248.733
260.622
273.016
285.806
298.709
311.432
322.637
332.678
10.409
9.08908
8.81898
9.62487
10.1459
10.5457
11.0574
11.5792
12.1154
12.6711
13.2521
13.8548
14.4818
15.1339
15.8122
16.5178
17.2517
18.0151
18.809
19.6346
20.4929
21.3851
22.3121
23.2752
24.2754
25.3139
26.3918
27.5102
28.6703
29.8734
31.1207
32.4135
33.7531
35.141
36.5788
38.068
39.6106
41.2082
42.8627
44.5764
46.3518
48.1913
50.0976
52.0737
54.1227
56.248
58.4533
60.7424
63.1198
65.5897
68.1571
70.8272
73.6053
76.4976
79.5101
82.6498
85.9238
89.3398
92.9061
96.6316
100.526
104.599
108.862
113.327
118.006
122.914
128.066
133.477
139.165
145.148
151.449
158.089
165.092
172.484
180.293
188.549
197.284
206.529
216.316
226.677
237.632
249.197
261.358
274.063
287.194
300.461
313.509
324.982
334.846
9.38991
9.04042
8.63905
9.41814
9.98779
10.411
10.9008
11.4228
11.9497
12.4954
13.0638
13.6541
14.2674
14.9052
15.5685
16.2585
16.9763
17.723
18.4995
19.3071
20.1469
21.0198
21.9271
22.8698
23.849
24.8659
25.9217
27.0176
28.1546
29.3342
30.5575
31.826
33.1411
34.5043
35.9171
37.3814
38.8987
40.4711
42.1007
43.7897
45.5404
47.3556
49.2378
51.1901
53.2157
55.3182
57.501
59.7682
62.1241
64.5732
67.1203
69.7707
72.53
75.4041
78.3993
81.5225
84.781
88.1826
91.7357
95.4493
99.333
103.397
107.654
112.114
116.792
121.7
126.855
132.274
137.974
143.976
150.3
156.97
164.011
171.452
179.321
187.65
196.474
205.826
215.744
226.259
237.401
249.186
261.606
274.613
288.082
301.724
315.111
326.905
336.585
8.97481
8.90357
8.5273
9.2293
9.82755
10.2582
10.7341
11.2465
11.7646
12.2979
12.8527
13.4291
14.0275
14.6498
15.2971
15.9704
16.6709
17.3996
18.1577
18.9463
19.7663
20.6189
21.5053
22.4264
23.3835
24.3776
25.4101
26.4821
27.5948
28.7494
29.9474
31.1903
32.4793
33.8161
35.2023
36.6398
38.1303
39.6756
41.2781
42.9401
44.6639
46.4521
48.3076
50.2334
52.2327
54.309
56.466
58.7078
61.0385
63.4628
65.9856
68.612
71.3478
74.1989
77.1717
80.2731
83.5104
86.8917
90.4252
94.1203
97.9868
102.035
106.277
110.724
115.39
120.29
125.44
130.856
136.557
142.563
148.898
155.585
162.65
170.122
178.034
186.418
195.311
204.75
214.775
225.424
236.728
248.71
261.367
274.658
288.452
302.47
316.205
328.356
337.858
8.72726
8.79977
8.43573
9.06599
9.66648
10.0976
10.5572
11.0558
11.5621
12.0814
12.6211
13.182
13.7645
14.3701
15.0001
15.6557
16.3378
17.0476
17.7861
18.5545
19.3537
20.1849
21.0492
21.9477
22.8815
23.8517
24.8597
25.9066
26.9936
28.122
29.2934
30.509
31.7705
33.0795
34.4374
35.8462
37.3079
38.8244
40.3978
42.0304
43.7249
45.4838
47.3099
49.2064
51.1764
53.2235
55.3514
57.5642
59.8662
62.2619
64.7563
67.3545
70.0624
72.8859
75.8315
78.906
82.1169
85.4722
88.9805
92.6511
96.4938
100.519
104.739
109.166
113.814
118.697
123.832
129.237
134.929
140.931
147.266
153.958
161.035
168.528
176.469
184.895
193.843
203.355
213.472
224.238
235.688
247.852
260.731
274.292
288.401
302.79
316.878
329.422
338.643
8.56401
8.728
8.36011
8.91816
9.50498
9.92944
10.37
10.851
11.3427
11.8461
12.3692
12.9131
13.4783
14.0661
14.6777
15.3144
15.9771
16.6668
17.3847
18.1318
18.9092
19.7179
20.559
21.4336
22.3429
23.288
24.2702
25.2906
26.3507
27.4516
28.5949
29.7819
31.0144
32.2936
33.6216
35.0001
36.431
37.9164
39.4585
41.0596
42.7223
44.4493
46.2433
48.1075
50.0453
52.06
54.1555
56.3358
58.6052
60.9683
63.4301
65.9959
68.6712
71.4622
74.3754
77.4178
80.5966
83.9201
87.3969
91.0362
94.8482
98.8437
103.034
107.433
112.054
116.911
122.022
127.404
133.077
139.063
145.385
152.07
159.145
166.643
174.597
183.046
192.031
201.594
211.782
222.642
234.214
246.534
259.61
273.416
287.819
302.562
317.008
329.988
338.767
8.42578
8.66137
8.29144
8.77718
9.34007
9.75283
10.1718
10.6323
11.1067
11.5925
12.0974
12.623
13.1696
13.7383
14.3305
14.9472
15.5893
16.2579
16.9541
17.6789
18.4333
19.2183
20.0351
20.8847
21.7683
22.687
23.6421
24.6348
25.6665
26.7384
27.852
29.0089
30.2104
31.4584
32.7545
34.1006
35.4987
36.9509
38.4593
40.0264
41.6547
43.3469
45.1059
46.9347
48.8368
50.8156
52.8749
55.0187
57.2513
59.5774
62.002
64.5303
67.1679
69.921
72.796
75.8
78.9402
82.225
85.6629
89.2633
93.0363
96.993
101.145
105.505
110.088
114.908
119.982
125.33
130.969
136.923
143.216
149.875
156.929
164.41
172.355
180.802
189.795
199.38
209.606
220.523
232.179
244.613
257.842
271.849
286.503
301.561
316.342
329.637
338.28
8.2929
8.58537
8.22086
8.63631
9.16813
9.56553
9.96154
10.3992
10.854
11.3207
11.8059
12.3119
12.8387
13.3873
13.9589
14.5545
15.1751
15.8216
16.495
17.1963
17.9266
18.6868
19.4781
20.3015
21.1582
22.0493
22.976
23.9397
24.9415
25.983
27.0654
28.1904
29.3594
30.5743
31.8366
33.1484
34.5115
35.9282
37.4006
38.9312
40.5224
42.177
43.898
45.6883
47.5514
49.4907
51.51
53.6133
55.8052
58.0899
60.4725
62.9583
65.553
68.2626
71.0935
74.0529
77.148
80.3872
83.7788
87.3325
91.0582
94.967
99.0708
103.383
107.916
112.687
117.713
123.011
128.603
134.509
140.756
147.37
154.382
161.825
169.735
178.154
187.126
196.699
206.927
217.861
229.556
242.056
255.384
269.534
284.377
299.688
314.73
328.149
337.051
8.15304
8.48903
8.13939
8.48956
8.98562
9.36513
9.73751
10.1508
10.5843
11.0306
11.495
11.9802
12.4862
13.0136
13.5637
14.1373
14.7353
15.3586
16.0082
16.6851
17.3903
18.1247
18.8894
19.6854
20.514
21.3763
22.2734
23.2067
24.1774
25.1869
26.2367
27.3283
28.4632
29.6432
30.87
32.1456
33.4718
34.8509
36.2851
37.7768
39.3285
40.943
42.6232
44.3722
46.1932
48.0899
50.0659
52.1254
54.2725
56.512
58.8487
61.2878
63.835
66.4964
69.2784
72.1879
75.2323
78.42
81.7593
85.2599
88.9316
92.7854
96.8334
101.089
105.565
110.278
115.245
120.484
126.016
131.863
138.051
144.607
151.561
158.948
166.805
175.175
184.103
193.64
203.841
214.762
226.458
238.984
252.363
266.601
281.563
297.038
312.187
325.809
334.522
8.00061
8.36696
8.04062
8.33207
8.78953
9.14936
9.49808
9.88614
10.2971
10.7218
11.1646
11.628
12.1122
12.6176
13.1451
13.6958
14.2702
14.8695
15.4944
16.1458
16.8248
17.5323
18.2693
19.0369
19.8363
20.6684
21.5347
22.4362
23.3744
24.3506
25.3662
26.4227
27.5219
28.6653
29.8546
31.092
32.3793
33.7187
35.1124
36.5628
38.0725
39.6442
41.2807
42.9854
44.7612
46.612
48.5412
50.553
52.6517
54.8417
57.1281
59.5159
62.0109
64.619
67.3466
70.2007
73.1886
76.3184
79.5989
83.039
86.6492
90.4403
94.4241
98.6135
103.023
107.668
112.565
117.733
123.193
128.967
135.08
141.56
148.439
155.751
163.534
171.831
180.688
190.159
200.299
211.168
222.825
235.327
248.703
262.964
277.971
293.519
308.644
322.541
330.483
7.83214
8.21611
7.91968
8.15985
8.57744
8.91631
9.24175
9.60433
9.99179
10.3943
10.8146
11.2555
11.717
12.1995
12.7037
13.2305
13.7805
14.3547
14.9539
15.5789
16.2307
16.9102
17.6184
18.3564
19.1253
19.9261
20.7601
21.6286
22.5328
23.474
24.4538
25.4736
26.5352
27.6402
28.7902
29.9873
31.2334
32.5307
33.8814
35.2879
36.7528
38.2787
39.8686
41.5256
43.2528
45.0539
46.9324
48.8925
50.9383
53.0743
55.3055
57.6369
60.0741
62.6231
65.2902
68.0823
71.0067
74.0714
77.2849
80.6565
84.196
87.9146
91.8238
95.9366
100.267
104.83
109.644
114.726
120.096
125.779
131.798
138.182
144.961
152.171
159.849
168.04
176.79
186.152
196.184
206.948
218.503
230.911
244.204
258.4
273.352
288.868
303.959
317.942
324.818
7.64597
8.0355
7.7735
7.96991
8.3475
8.66455
8.96732
9.30459
9.66807
10.0477
10.4451
10.8628
11.301
11.7598
12.2399
12.742
13.2668
13.8151
14.3876
14.9852
15.6088
16.2593
16.9376
17.6449
18.382
19.1502
19.9507
20.7846
21.6534
22.5583
23.5007
24.4822
25.5044
26.569
27.6777
28.8324
30.0352
31.2881
32.5934
33.9534
35.3707
36.8481
38.3883
39.9944
41.6696
43.4174
45.2415
47.1458
49.1345
51.212
53.3832
55.6532
58.0274
60.5116
63.1123
65.8361
68.6902
71.6826
74.8215
78.1162
81.5767
85.2133
89.0378
93.0631
97.303
101.773
106.488
111.469
116.735
122.308
128.214
134.479
141.135
148.216
155.761
163.812
172.416
181.628
191.502
202.102
213.489
225.724
238.839
252.855
267.606
282.966
297.79
311.75
317.048
7.44122
7.82518
7.60012
7.76002
8.09841
8.39309
8.67391
8.98636
9.32567
9.6821
10.0562
10.4503
10.8646
11.2991
11.7544
12.2312
12.73
13.2516
13.7966
14.366
14.9604
15.5809
16.2283
16.9037
17.6081
18.3426
19.1083
19.9065
20.7386
21.6056
22.5093
23.4509
24.4322
25.4548
26.5204
27.6309
28.7884
29.9949
31.2526
32.564
33.9315
35.3577
36.8456
38.3981
40.0185
41.7101
43.4766
45.3219
47.2502
49.2656
51.3731
53.5778
55.8848
58.3001
60.8297
63.4805
66.2593
69.1742
72.2331
75.4452
78.8202
82.3687
86.102
90.0324
94.174
98.5416
103.151
108.022
113.172
118.625
124.405
130.539
137.057
143.993
151.385
159.275
167.71
176.742
186.426
196.823
207.993
219.995
232.855
246.591
261.021
276.076
290.23
304.052
306.536
7.21733
7.58596
7.39855
7.52867
7.82932
8.10131
8.36093
8.64921
8.96439
9.29742
9.64801
10.0181
10.408
10.8178
11.2477
11.6985
12.1705
12.6646
13.1814
13.7216
14.2859
14.8754
15.4908
16.1333
16.8037
17.5032
18.2329
18.994
19.7878
20.6156
21.4789
22.3789
23.3174
24.2961
25.3167
26.381
27.491
28.6487
29.8565
31.1165
32.4314
33.8037
35.2362
36.732
38.294
39.9259
41.631
43.4133
45.2767
47.2257
49.2648
51.399
53.6336
55.9742
58.4269
60.9983
63.6952
66.5252
69.4966
72.6181
75.8992
79.35
82.982
86.8071
90.8388
95.0919
99.582
104.327
109.347
114.662
120.297
126.279
132.635
139.401
146.612
154.31
162.539
171.35
180.797
190.938
201.83
213.528
226.049
239.417
253.422
268.002
281.209
294.675
294.066
6.97407
7.31909
7.16854
7.2749
7.53975
7.78895
8.02807
8.29298
8.58425
8.89384
9.22078
9.56664
9.93185
10.3164
10.7204
11.1445
11.5891
12.055
12.5426
13.0527
13.5861
14.1436
14.7261
15.3345
15.9698
16.6331
17.3255
18.0482
18.8023
19.5892
20.4104
21.2672
22.1613
23.0942
24.0678
25.0837
26.144
27.2507
28.406
29.6122
30.8717
32.1871
33.5612
34.9969
36.4974
38.0658
39.7057
41.4209
43.2154
45.0933
47.0592
49.1179
51.2747
53.5349
55.9046
58.3901
60.9983
63.7363
66.6123
69.6347
72.8126
76.1564
79.6768
83.3854
87.2952
91.4206
95.7769
100.381
105.252
110.411
115.881
121.686
127.856
134.422
141.419
148.886
156.866
165.407
174.559
184.377
194.91
206.208
218.28
231.152
244.504
258.422
270.37
283.357
278.449
6.71141
7.02619
6.91041
6.99825
7.22961
7.45614
7.67543
7.9178
8.18554
8.47175
8.775
9.09652
9.43673
9.79559
10.1732
10.5701
10.9868
11.4237
11.8815
12.3607
12.8623
13.3869
13.9354
14.5088
15.1079
15.7338
16.3877
17.0705
17.7837
18.5285
19.3061
20.1181
20.9661
21.8516
22.7762
23.7419
24.7505
25.804
26.9046
28.0546
29.2563
30.5123
31.8253
33.1981
34.6339
36.1357
37.7071
39.3517
41.0735
42.8765
44.7651
46.7441
48.8186
50.9938
53.2755
55.6698
58.1836
60.8238
63.5981
66.5148
69.5826
72.8119
76.2124
79.7957
83.5745
87.5622
91.7737
96.2258
100.936
105.924
111.212
116.824
122.788
129.132
135.89
143.098
150.796
159.027
167.836
177.273
187.374
198.189
209.703
221.919
234.403
247.474
257.703
270.061
258.077
6.42931
6.709
6.6249
6.69866
6.89907
7.10324
7.30329
7.52396
7.76861
8.03159
8.31118
8.60826
8.92327
9.25613
9.60701
9.97625
10.3643
10.7716
11.1988
11.6465
12.1154
12.6062
13.1198
13.6571
14.2189
14.8063
15.4204
16.0622
16.7331
17.4342
18.1669
18.9325
19.7327
20.5688
21.4428
22.3563
23.3111
24.3093
25.3529
26.4443
27.5857
28.7795
30.0286
31.3356
32.7035
34.1356
35.6351
37.2056
38.8509
40.5749
42.3821
44.277
46.2645
48.3498
50.5383
52.8362
55.2498
57.786
60.4523
63.2564
66.2072
69.3137
72.5863
76.0357
79.6741
83.5138
87.5699
91.8575
96.3936
101.197
106.288
111.691
117.429
123.53
130.025
136.947
144.332
152.217
160.642
169.647
179.264
189.521
200.36
211.783
223.221
235.24
243.176
254.647
234.202
6.12781
6.36936
6.31314
6.37641
6.54854
6.73083
6.91215
7.11192
7.33399
7.57392
7.82992
8.10251
8.39213
8.69874
9.02243
9.36353
9.72238
10.0995
10.4955
10.9107
11.3461
11.8022
12.2799
12.7801
13.3035
13.8513
14.4243
15.0238
15.651
16.3069
16.9929
17.7106
18.4612
19.2462
20.0674
20.9267
21.8255
22.7661
23.7504
24.7805
25.8588
26.9877
28.1698
29.4078
30.7046
32.0633
33.4871
34.9794
36.544
38.1847
39.9057
41.7114
43.6066
45.5962
47.6857
49.8807
52.1874
54.6123
57.1628
59.8462
62.6708
65.6456
68.78
72.0843
75.5702
79.2495
83.1361
87.2441
91.5897
96.1903
101.065
106.234
111.722
117.553
123.754
130.356
137.388
144.883
152.873
161.391
170.446
180.043
190.081
200.584
210.754
221.498
226.514
236.902
207.125
5.80707
6.00922
5.97657
6.03213
6.1787
6.33977
6.50284
6.68244
6.88248
7.09961
7.33208
7.5802
7.84431
8.1244
8.42056
8.73307
9.06228
9.40863
9.77265
10.1548
10.5559
10.9765
11.4174
11.8794
12.3634
12.8704
13.4013
13.9572
14.5392
15.1487
15.7867
16.4546
17.154
17.8863
18.6531
19.4561
20.297
21.1778
22.1004
23.067
24.0798
25.1411
26.2535
27.4196
28.6422
29.9243
31.269
32.6797
34.1599
35.7133
37.344
39.0563
40.8546
42.7439
44.7291
46.8158
49.0098
51.3176
53.746
56.3016
58.9928
61.828
64.8158
67.9661
71.2895
74.7975
78.5027
82.4184
86.5592
90.9413
95.5816
100.499
105.715
111.251
117.128
123.374
130.015
137.076
144.58
152.54
160.943
169.786
178.916
188.373
197.047
206.358
207.811
217.122
172.998
5.46726
5.63051
5.61688
5.66672
5.79041
5.93106
6.07631
6.23641
6.41494
6.60953
6.81859
7.04224
7.28073
7.5341
7.80242
8.08597
8.38505
8.70007
9.03151
9.37994
9.74592
10.1301
10.5333
10.9563
11.3998
11.8649
12.3525
12.8636
13.3993
13.9609
14.5494
15.1662
15.8129
16.4905
17.2011
17.946
18.7271
19.546
20.4048
21.3056
22.2505
23.2418
24.2818
25.3733
26.5188
27.7213
28.9838
30.3095
31.7017
33.1643
34.7009
36.3157
38.0129
39.7972
41.6736
43.6471
45.7234
47.9085
50.2088
52.6309
55.1824
57.871
60.7049
63.6938
66.8469
70.175
73.6896
77.4028
81.3277
85.4793
89.8726
94.5236
99.4503
104.672
110.208
116.078
122.3
128.89
135.857
143.2
150.891
158.906
167.017
175.292
182.222
189.918
187.054
195.219
133.26
5.10875
5.23517
5.23597
5.28136
5.38472
5.50587
5.63369
5.77484
5.93236
6.10467
6.29044
6.4896
6.70235
6.92877
7.16895
7.42312
7.69157
7.97467
8.27294
8.58688
8.91701
9.26399
9.62862
10.0115
10.4135
10.8356
11.2787
11.7437
12.2317
12.7439
13.2814
13.8455
14.4376
15.0591
15.7114
16.3962
17.1152
17.8701
18.6628
19.4952
20.3695
21.2879
22.2527
23.2663
24.3315
25.4509
26.6274
27.8642
29.1645
30.5318
31.9697
33.4821
35.0732
36.7471
38.5088
40.363
42.3151
44.3706
46.5354
48.8161
51.2192
53.7525
56.4232
59.24
62.2116
65.3481
68.6594
72.1562
75.8504
79.7549
83.8832
88.2487
92.8664
97.7518
102.918
108.379
114.145
120.22
126.601
133.275
140.181
147.274
154.228
161.163
166.048
171.889
163.798
170.724
91.6974
4.73201
4.82513
4.83596
4.87748
4.96288
5.06556
5.17631
5.29901
5.43598
5.58626
5.74881
5.92349
6.11042
6.3097
6.52145
6.74586
6.98324
7.23395
7.49842
7.77722
8.07077
8.37976
8.70491
9.04686
9.40642
9.78445
10.1819
10.5996
11.0386
11.5002
11.9852
12.4951
13.0311
13.5947
14.1872
14.8101
15.465
16.1538
16.8781
17.64
18.4413
19.2843
20.1711
21.1043
22.0861
23.1193
24.2067
25.3512
26.556
27.8242
29.1594
30.5653
32.0457
33.6048
35.2468
36.9765
38.7989
40.7189
42.7422
44.8747
47.1225
49.4926
51.9917
54.6271
57.4073
60.3409
63.4369
66.7049
70.1548
73.7977
77.6448
81.7061
85.9933
90.5167
95.2839
100.303
105.577
111.101
116.855
122.81
128.871
134.972
140.672
146.181
148.797
152.754
138.619
144.705
40.3987
4.33786
4.4023
4.41909
4.4568
4.52632
4.6116
4.70564
4.81026
4.92707
5.05557
5.19499
5.34515
5.50614
5.67808
5.86112
6.05542
6.26129
6.47909
6.70921
6.95219
7.20849
7.47873
7.76354
8.06366
8.37976
8.71271
9.06338
9.43268
9.82154
10.2311
10.6624
11.1166
11.5951
12.099
12.6298
13.1889
13.778
14.3986
15.0525
15.7416
16.4676
17.2328
18.0392
18.8891
19.7848
20.729
21.7241
22.7731
23.8789
25.0446
26.2734
27.569
28.9348
30.3747
31.8928
33.4933
35.1809
36.9604
38.8368
40.8155
42.9021
45.1027
47.4239
49.8718
52.4539
55.1773
58.0501
61.0799
64.2753
67.645
71.1965
74.9378
78.8767
83.0192
87.3683
91.9241
96.6797
101.619
106.705
111.889
117.038
122.07
126.403
130.377
130.46
132.439
111.359
116.757
-16.0541
3.92736
3.96861
3.98778
4.0212
4.07664
4.1456
4.22323
4.31006
4.40702
4.51393
4.63025
4.75584
4.89076
5.03515
5.18915
5.35295
5.52684
5.7112
5.90639
6.11289
6.33119
6.56186
6.80555
7.06289
7.33458
7.6214
7.92419
8.24382
8.58122
8.9374
9.31343
9.71043
10.1296
10.5722
11.0395
11.533
12.054
12.6044
13.1856
13.7994
14.4476
15.1322
15.8553
16.6189
17.4254
18.2771
19.1766
20.1263
21.1292
22.1881
23.3062
24.4866
25.7328
27.0482
28.4367
29.9023
31.4492
33.0816
34.804
36.6216
38.5393
40.5623
42.6962
44.9468
47.3203
49.8225
52.4599
55.2386
58.165
61.245
64.4845
67.888
71.4587
75.1978
79.1023
83.1639
87.3652
91.6772
96.0441
100.396
104.555
108.425
111.245
113.541
110.748
110.599
81.495
86.381
-72.1157
3.50202
3.52595
3.54451
3.57287
3.61565
3.6693
3.73087
3.80009
3.87742
3.96287
4.05612
4.15707
4.26577
4.38237
4.50706
4.64
4.78151
4.93192
5.09163
5.26107
5.44073
5.63112
5.83282
6.04652
6.27287
6.51257
6.76644
7.03535
7.32011
7.62171
7.94114
8.27947
8.63791
9.01754
9.4198
9.84584
10.2971
10.7752
11.2815
11.8179
12.386
12.9877
13.6249
14.2996
15.0139
15.7702
16.5708
17.4181
18.3147
19.2634
20.267
21.3285
22.451
23.6378
24.8923
26.2182
27.6191
29.099
30.6621
32.3124
34.0544
35.8927
37.8319
39.8767
42.0324
44.3037
46.6955
49.2121
51.8582
54.6374
57.5525
60.6042
63.7922
67.112
70.5539
74.1015
77.7269
81.388
85.0091
88.5006
91.6329
94.3074
95.55
96.1585
90.2909
88.2224
50.3153
55.6697
-141.467
3.06379
3.07623
3.09183
3.1141
3.14529
3.18454
3.23028
3.28201
3.33987
3.40394
3.47409
3.55027
3.63257
3.72115
3.81618
3.91791
4.0266
4.14259
4.26625
4.39799
4.5383
4.68769
4.8467
5.01591
5.19596
5.3876
5.59151
5.80849
6.03941
6.28517
6.54673
6.82504
7.12126
7.43642
7.77177
8.12862
8.5083
8.91214
9.34173
9.79857
10.2843
10.8007
11.3496
11.9328
12.5524
13.2104
13.9091
14.6509
15.438
16.273
17.1585
18.0972
19.092
20.1459
21.262
22.4435
23.6936
25.0157
26.4137
27.891
29.4514
31.0985
32.8364
34.6687
36.5993
38.6317
40.7692
43.0145
45.3697
47.8358
50.4128
53.0977
55.8854
58.7656
61.7222
64.7298
67.749
70.7234
73.5552
76.1347
78.1737
79.5778
79.1192
77.9398
68.6962
64.6187
16.9977
22.697
-207.632
2.61525
2.62138
2.63228
2.64739
2.66767
2.69325
2.72339
2.75763
2.79605
2.83873
2.8857
2.93696
2.99264
3.05292
3.11798
3.18808
3.26349
3.34455
3.43161
3.52506
3.62536
3.73298
3.84845
3.97233
4.10522
4.24777
4.40066
4.56467
4.74057
4.92917
5.13139
5.34818
5.58058
5.82971
6.09652
6.38232
6.6883
7.01592
7.36641
7.74135
8.14227
8.57075
9.02854
9.51733
10.0391
10.5957
11.1891
11.8216
12.4953
13.2124
13.9755
14.7869
15.6492
16.5651
17.5373
18.5686
19.6619
20.8201
22.0463
23.3433
24.7144
26.1624
27.6902
29.3006
30.9959
32.7786
34.65
36.6109
38.6613
40.7998
43.0221
45.3219
47.6894
50.108
52.5541
54.9933
57.3731
59.6224
61.6191
63.2338
64.1096
64.1711
61.8824
58.844
45.892
39.8816
-18.3989
-11.7432
-272.935
2.15958
2.16329
2.16836
2.1754
2.18513
2.19753
2.21216
2.22889
2.2478
2.26904
2.2927
2.31886
2.34768
2.37936
2.41412
2.45222
2.49393
2.53958
2.58951
2.64411
2.70378
2.76898
2.8402
2.91795
3.00279
3.09536
3.19629
3.30626
3.42601
3.55633
3.69806
3.85203
4.01928
4.20069
4.39744
4.61052
4.84118
5.09066
5.36021
5.65123
5.96516
6.30349
6.6678
7.05971
7.48096
7.93334
8.4187
8.93897
9.49618
10.0924
10.7297
11.4104
12.1366
12.9108
13.7353
14.6125
15.5448
16.5346
17.5845
18.6967
19.8735
21.117
22.4292
23.8119
25.2662
26.7928
28.3917
30.0617
31.8002
33.6033
35.4637
37.3709
39.3099
41.259
43.1865
45.0488
46.7812
48.2983
49.4527
50.099
49.8056
48.5404
44.4055
39.6144
22.8569
15.4212
-53.8938
-44.8232
-356.992
1.70053
1.70375
1.70231
1.70074
1.70004
1.69942
1.69854
1.69761
1.69689
1.69653
1.69667
1.69748
1.69915
1.70192
1.70601
1.7117
1.71926
1.729
1.74125
1.75638
1.77477
1.79686
1.82307
1.85391
1.8899
1.93156
1.97949
2.03436
2.09683
2.16765
2.24755
2.33735
2.43789
2.55021
2.67514
2.81386
2.96729
3.13671
3.32319
3.52815
3.7528
3.99855
4.26686
4.55921
4.87718
5.22239
5.59652
6.00131
6.43857
6.91011
7.41782
7.96366
8.54957
9.17747
9.84942
10.5673
11.3332
12.1489
13.0163
13.937
14.9126
15.9443
17.0331
18.1795
19.3834
20.6441
21.9595
23.3266
24.7405
26.1937
27.6758
29.1724
30.6627
32.1185
33.5006
34.7553
35.804
36.5461
36.8061
36.4228
34.8771
32.1949
26.0575
19.3851
-1.53062
-10.65
-91.7214
-81.4233
-419.137
1.24208
1.24461
1.23644
1.22614
1.21491
1.20112
1.18455
1.16578
1.14522
1.12303
1.0994
1.07456
1.04877
1.02227
0.995316
0.968175
0.941127
0.914472
0.888529
0.863637
0.840153
0.818438
0.798946
0.782065
0.768315
0.758185
0.752209
0.750969
0.755089
0.76517
0.782002
0.8063
0.83886
0.880441
0.932078
0.994573
1.06906
1.15643
1.25796
1.37462
1.50771
1.65848
1.82824
2.01834
2.23019
2.46525
2.72502
3.01102
3.32482
3.66809
4.04235
4.44929
4.89053
5.36769
5.88238
6.43611
7.03035
7.66637
8.34551
9.06862
9.83657
10.6496
11.5076
12.41
13.3553
14.3412
15.3639
16.418
17.4962
18.588
19.6794
20.7515
21.7783
22.7252
23.5444
24.1722
24.5159
24.4601
23.7989
22.36
19.5245
15.408
7.19417
-1.30295
-26.5788
-37.0213
-130.024
-117.693
-484.273
0.787953
0.78781
0.773168
0.75436
0.732216
0.704815
0.672244
0.635394
0.594703
0.550365
0.502641
0.45184
0.398249
0.342124
0.283739
0.223362
0.161273
0.0977663
0.0331322
-0.0323395
-0.0983068
-0.164395
-0.230277
-0.295526
-0.359757
-0.422507
-0.483265
-0.541551
-0.596827
-0.648447
-0.695817
-0.738293
-0.775124
-0.805477
-0.8287
-0.843854
-0.850072
-0.846339
-0.831779
-0.805263
-0.765717
-0.712034
-0.643038
-0.557503
-0.454198
-0.331829
-0.189096
-0.0246421
0.162864
0.374789
0.612496
0.877282
1.17051
1.49345
1.84723
2.23298
2.65162
3.104
3.59066
4.11194
4.66759
5.25723
5.8797
6.53316
7.21487
7.92067
8.64517
9.38082
10.1177
10.8426
11.5377
12.1793
12.7371
13.1698
13.4213
13.418
13.0536
12.1991
10.6174
8.13206
4.01352
-1.49402
-11.7756
-21.9289
-51.5591
-62.7794
-167.391
-152.123
-564.592
0.341367
0.335323
0.315014
0.288038
0.254298
0.212605
0.163646
0.10836
0.0471483
-0.0197271
-0.0919166
-0.169066
-0.25086
-0.337012
-0.427244
-0.521281
-0.618867
-0.719733
-0.823605
-0.93018
-1.03918
-1.15035
-1.2633
-1.37772
-1.49321
-1.60942
-1.72593
-1.84232
-1.958
-2.07252
-2.18535
-2.29585
-2.40339
-2.5074
-2.60704
-2.70156
-2.79023
-2.87218
-2.94651
-3.01233
-3.06868
-3.11454
-3.1489
-3.17071
-3.17888
-3.1723
-3.14982
-3.11036
-3.05277
-2.976
-2.87891
-2.76048
-2.61979
-2.4559
-2.26806
-2.05562
-1.81815
-1.55547
-1.26764
-0.955159
-0.618871
-0.260287
0.118377
0.513983
0.922275
1.33766
1.7528
2.15777
2.53994
2.88277
3.16492
3.3587
3.42699
3.3223
2.97965
2.31579
1.20887
-0.4838
-3.03434
-6.6199
-12.0971
-19.0662
-31.5554
-43.4515
-77.6984
-89.9661
-206.323
-189.697
-614.775
-0.0948842
-0.110787
-0.135398
-0.170183
-0.216496
-0.273345
-0.339179
-0.413308
-0.495487
-0.585365
-0.682448
-0.78634
-0.896727
-1.01331
-1.13579
-1.26393
-1.39745
-1.53611
-1.67966
-1.82787
-1.98049
-2.13723
-2.29784
-2.46206
-2.62957
-2.80003
-2.97307
-3.14832
-3.32541
-3.50389
-3.68319
-3.86293
-4.04253
-4.22135
-4.39883
-4.57426
-4.74697
-4.9163
-5.08147
-5.24153
-5.3958
-5.54339
-5.68338
-5.81491
-5.93701
-6.04882
-6.14941
-6.23784
-6.31329
-6.37481
-6.42172
-6.4532
-6.46865
-6.46762
-6.44967
-6.41472
-6.36282
-6.29444
-6.21023
-6.11136
-5.99973
-5.87775
-5.74863
-5.61695
-5.48808
-5.36958
-5.27075
-5.20375
-5.18385
-5.23059
-5.3693
-5.63253
-6.06196
-6.7128
-7.65792
-8.99085
-10.8487
-13.386
-16.9117
-21.5945
-28.4348
-36.826
-51.5326
-65.0055
-103.868
-116.718
-243.993
-225.668
-670.975
-0.518462
-0.548398
-0.575398
-0.617789
-0.677989
-0.750983
-0.834215
-0.927677
-1.03139
-1.14477
-1.2672
-1.39829
-1.5377
-1.68513
-1.84028
-2.00293
-2.1728
-2.34969
-2.5334
-2.7237
-2.9204
-3.12333
-3.33224
-3.54687
-3.76701
-3.99241
-4.22276
-4.45781
-4.6972
-4.9405
-5.18743
-5.43755
-5.69035
-5.9453
-6.20205
-6.45994
-6.71825
-6.97664
-7.23424
-7.49047
-7.74463
-7.996
-8.2438
-8.48738
-8.72591
-8.95863
-9.18492
-9.40399
-9.61532
-9.81819
-10.0122
-10.1969
-10.372
-10.5373
-10.693
-10.8393
-10.977
-11.1069
-11.2306
-11.3498
-11.4675
-11.5867
-11.7121
-11.8491
-12.0051
-12.1889
-12.4119
-12.6886
-13.0365
-13.4788
-14.0442
-14.7699
-15.7037
-16.9062
-18.4591
-20.4653
-23.0774
-26.4593
-30.9598
-36.7279
-44.9245
-54.6873
-71.5949
-86.4856
-129.846
-142.99
-280.113
-260.504
-729.643
-0.927404
-0.975341
-1.00236
-1.05243
-1.12811
-1.2183
-1.31951
-1.43291
-1.55877
-1.69625
-1.84455
-2.00329
-2.17217
-2.35089
-2.53915
-2.73672
-2.94337
-3.15894
-3.38327
-3.61616
-3.85748
-4.1071
-4.36481
-4.63051
-4.90399
-5.1851
-5.4736
-5.76928
-6.07193
-6.38118
-6.6967
-7.01832
-7.34564
-7.67822
-8.01563
-8.35741
-8.70318
-9.05242
-9.40457
-9.75902
-10.1153
-10.4728
-10.8309
-11.1891
-11.5469
-11.9035
-12.2586
-12.6116
-12.9624
-13.3103
-13.6553
-13.9972
-14.3362
-14.6724
-15.0065
-15.3393
-15.6719
-16.0058
-16.3433
-16.687
-17.0405
-17.4082
-17.7956
-18.2096
-18.6589
-19.1544
-19.7091
-20.3399
-21.0674
-21.9177
-22.9241
-24.1273
-25.5807
-27.3525
-29.5329
-32.2342
-35.6247
-39.8775
-45.3844
-52.2667
-61.8659
-73.0218
-92.2069
-108.516
-156.419
-170.06
-316.265
-296.995
-761.067
-1.32005
-1.38938
-1.41368
-1.47186
-1.56484
-1.67329
-1.79312
-1.92713
-2.07585
-2.23801
-2.41268
-2.59958
-2.7984
-3.00882
-3.23059
-3.46345
-3.70728
-3.96193
-4.22722
-4.50308
-4.78945
-5.08621
-5.39327
-5.71055
-6.03797
-6.3754
-6.72271
-7.07976
-7.44638
-7.82235
-8.20761
-8.60184
-9.00471
-9.41593
-9.83537
-10.2626
-10.6972
-11.1387
-11.5869
-12.0414
-12.5016
-12.9672
-13.4377
-13.9128
-14.392
-14.875
-15.3615
-15.8512
-16.344
-16.8399
-17.3388
-17.8411
-18.3473
-18.858
-19.3739
-19.8967
-20.4279
-20.9697
-21.5252
-22.0976
-22.6912
-23.3117
-23.9656
-24.6613
-25.4089
-26.2208
-27.112
-28.1023
-29.2142
-30.4774
-31.9284
-33.613
-35.5905
-37.9346
-40.7442
-44.14
-48.3064
-53.4218
-59.9242
-67.8922
-78.8695
-91.3313
-112.741
-130.236
-182.451
-196.188
-349.797
-331.413
-800.993
-1.69496
-1.7882
-1.80682
-1.87401
-1.98634
-2.11412
-2.25321
-2.40862
-2.58094
-2.7684
-2.97001
-3.18555
-3.41476
-3.65732
-3.91298
-4.18152
-4.46288
-4.75695
-5.06358
-5.38285
-5.71467
-6.05897
-6.41582
-6.78517
-7.16703
-7.56137
-7.96808
-8.38722
-8.81863
-9.2623
-9.71801
-10.1858
-10.6653
-11.1566
-11.6592
-12.173
-12.6979
-13.2334
-13.7795
-14.3357
-14.9017
-15.4774
-16.0625
-16.6566
-17.2597
-17.8714
-18.4919
-19.1209
-19.7587
-20.4055
-21.0616
-21.7274
-22.4041
-23.0925
-23.7941
-24.5105
-25.2442
-25.9979
-26.7753
-27.5804
-28.4186
-29.2964
-30.2216
-31.2036
-32.254
-33.387
-34.6201
-35.9741
-37.4755
-39.1568
-41.0575
-43.2287
-45.7342
-48.6537
-52.095
-56.1861
-61.1277
-67.1002
-74.5913
-83.6223
-95.9604
-109.66
-133.246
-151.776
-208.027
-221.811
-381.212
-364.999
-836.545
-2.05091
-2.16945
-2.17938
-2.25703
-2.3909
-2.53899
-2.69808
-2.87573
-3.07245
-3.28587
-3.51498
-3.7597
-4.01976
-4.29487
-4.58479
-4.88939
-5.20862
-5.54243
-5.89081
-6.25377
-6.6314
-7.02368
-7.43074
-7.85266
-8.28947
-8.74125
-9.20809
-9.68998
-10.187
-10.6991
-11.2264
-11.7687
-12.326
-12.8983
-13.4855
-14.0875
-14.7043
-15.3354
-15.981
-16.6409
-17.3149
-18.0028
-18.7047
-19.4204
-20.1499
-20.8933
-21.6506
-22.4221
-23.2081
-24.0092
-24.8259
-25.6593
-26.5104
-27.3808
-28.2722
-29.187
-30.128
-31.0987
-32.1033
-33.1468
-34.2354
-35.3766
-36.5794
-37.8545
-39.2152
-40.6773
-42.2599
-43.9867
-45.8865
-47.9952
-50.3558
-53.024
-56.0688
-59.5763
-63.6621
-68.4616
-74.1924
-81.0344
-89.53
-99.6297
-113.349
-128.269
-154.047
-173.581
-233.694
-247.821
-411.59
-399.435
-846.242
-2.38676
-2.5307
-2.52907
-2.6192
-2.77683
-2.94618
-3.12603
-3.32687
-3.54882
-3.78884
-4.04601
-4.32037
-4.61172
-4.91978
-5.24429
-5.58526
-5.94262
-6.31641
-6.70676
-7.1137
-7.53739
-7.97793
-8.43558
-8.91039
-9.40255
-9.91225
-10.4397
-10.9849
-11.5481
-12.1294
-12.7288
-13.3465
-13.9826
-14.6371
-15.31
-16.0014
-16.7112
-17.4394
-18.1861
-18.9513
-19.7348
-20.5369
-21.3576
-22.1969
-23.0551
-23.9323
-24.8289
-25.7453
-26.6822
-27.6404
-28.6207
-29.6243
-30.653
-31.7084
-32.793
-33.9095
-35.0612
-36.2525
-37.4878
-38.7735
-40.1163
-41.5249
-43.0089
-44.581
-46.2554
-48.05
-49.9862
-52.0889
-54.3905
-56.9294
-59.7522
-62.9187
-66.5027
-70.5964
-75.323
-80.8236
-87.3332
-95.0255
-104.503
-115.624
-130.68
-146.705
-174.573
-194.874
-258.434
-272.712
-438.573
-433.463
-862.867
-2.7014
-2.86947
-2.85375
-2.95904
-3.14266
-3.33409
-3.53556
-3.76058
-4.00858
-4.27586
-4.56164
-4.86614
-5.18918
-5.53047
-5.88987
-6.26743
-6.66317
-7.07722
-7.50969
-7.9608
-8.43078
-8.91983
-9.42826
-9.95631
-10.5042
-11.0722
-11.6606
-12.2697
-12.8996
-13.5507
-14.2231
-14.917
-15.6327
-16.3703
-17.13
-17.9117
-18.7159
-19.5425
-20.3918
-21.2638
-22.1587
-23.0767
-24.0181
-24.983
-25.9719
-26.9851
-28.0233
-29.0871
-30.1774
-31.2951
-32.4416
-33.6184
-34.8274
-36.0709
-37.3515
-38.6728
-40.0384
-41.4531
-42.9225
-44.4534
-46.0536
-47.7324
-49.5011
-51.3731
-53.3645
-55.4942
-57.786
-60.2669
-62.9713
-65.941
-69.2263
-72.8903
-77.0119
-81.6876
-87.0486
-93.24
-100.515
-109.034
-119.467
-131.558
-147.902
-164.92
-194.764
-215.642
-282.188
-296.589
-462.363
-463.173
-886.963
-2.99381
-3.18323
-3.15151
-3.27525
-3.48704
-3.7013
-3.92532
-4.17562
-4.45051
-4.74569
-5.06062
-5.39573
-5.75083
-6.12569
-6.52024
-6.9346
-7.36889
-7.82336
-8.29814
-8.79362
-9.31009
-9.84785
-10.4073
-10.9888
-11.5927
-12.2194
-12.8692
-13.5426
-14.2399
-14.9614
-15.7075