/*--------------------------------*- C++ -*----------------------------------*\
  =========                 |
  \\      /  F ield         | OpenFOAM: The Open Source CFD Toolbox
   \\    /   O peration     | Website:  https://openfoam.org
    \\  /    A nd           | Version:  11
     \\/     M anipulation  |
\*---------------------------------------------------------------------------*/
FoamFile
{
    format      ascii;
    class       surfaceScalarField;
    location    "450";
    object      phi;
}
// * * * * * * * * * * * * * * * * * * * * * * * * * * * * * * * * * * * * * //

dimensions      [0 3 -1 0 0 0 0];

internalField   nonuniform List<scalar> 
62845
(
48152.9
-552789
554273
45152.1
-525584
528585
43290.1
-499127
500989
40940
-474200
476550
39018.8
-450387
452308
36996.1
-427828
429851
35200.4
-406343
408138
33425.3
-385950
387725
31772.8
-366552
368204
30175.8
-348139
349736
28685.3
-330648
332139
27269.7
-314034
315449
25904.3
-298229
299595
24636.1
-283255
284523
23398.6
-268989
270227
22261
-255479
256617
21152.4
-242606
243714
20100.5
-230413
231465
19120.9
-218827
219807
18183.7
-207805
208742
17274.5
-197345
198254
16436.9
-187433
188270
15627.1
-177980
178790
14859.7
-169032
169799
14134.5
-160527
161252
13437
-152438
153135
12781.7
-144777
145433
12153.8
-137488
138116
11567.9
-130583
131169
10980.3
-123990
124578
10449.2
-117766
118298
9930.74
-111839
112358
9439.52
-106223
106714
8975.49
-100873
101337
8524.05
-95804.1
96255.5
8099.74
-90986.6
91410.9
7688
-86420.1
86831.9
7303.39
-82075.4
82460
6931.36
-77950.6
78322.6
6574.87
-74036.7
74393.2
6233.96
-70320.2
70661.2
5908.68
-66790.8
67116.1
5596.22
-63438
63750.4
5298.1
-60255.6
60553.7
5011.54
-57231.7
57518.3
4738.08
-54360.4
54633.9
4473.51
-51632.7
51897.3
4222.31
-49043.9
49295.1
3980.27
-46582.3
46824.3
3748.98
-44246.2
44477.5
3527.13
-42025.3
42247.1
3314.88
-39916.5
40128.7
3109.48
-37911
38116.4
2915.41
-36008.6
36202.7
2728.49
-34199.2
34386.1
2548.84
-32478.2
32657.8
2378.05
-30845.6
31016.4
2213.35
-29292.6
29457.3
2057.77
-27816.3
27971.9
1908.5
-26413.7
26562.9
1765.67
-25080.4
25223.2
1629.38
-23812.2
23948.4
1499.72
-22607.4
22737
1376.77
-21461.8
21584.7
1259.17
-20372.4
20490
1148.43
-19336.4
19447.2
1041.76
-18350.9
18457.6
940.645
-17414.4
17515.6
846.574
-16525.5
16619.6
756.749
-15677.1
15766.9
671.223
-14871.9
14957.5
591.487
-14105.8
14185.6
517.569
-13378.7
13452.7
446.701
-12685
12755.9
381.79
-12026.2
12091.1
320.365
-11400.4
11461.8
263.917
-10805
10861.4
211.974
-10239.3
10291.3
164.622
-9702.09
9749.44
121.632
-9191.88
9234.87
83.8241
-8708.54
8746.35
49.5221
-8250.99
8285.29
23.3213
-7817.14
7843.34
-2.61891
-7417.46
7443.4
-12.5943
-7019.84
7029.82
-31.0683
-6714.56
6733.04
-18.1718
-6298.1
6285.2
-39.6274
-6278.33
6299.79
-5609.18
5569.56
75051.8
-549128
71211
-521743
67701.8
-495618
64289.6
-470788
61080.8
-447178
57998.3
-424745
55096.1
-403440
52325.6
-383180
49694.7
-363921
47204.6
-345649
44834.4
-328278
42579
-311778
40456.1
-296106
38419.7
-281218
36500.2
-267070
34667.7
-253647
32936.9
-240875
31278.4
-228754
29706.9
-217256
28222.2
-206320
26824.2
-195947
25468.9
-186078
24200.3
-176712
22974.3
-167806
21820.2
-159373
20737.8
-151355
19697.8
-143738
18700.2
-136490
17745
-129628
16861.1
-123106
16019.5
-116925
15205.5
-111025
14419
-105436
13689.1
-100143
12986.6
-95101.7
12326.2
-90326.1
11693.1
-85787.1
11087.5
-81469.8
10504.9
-77368
9955.64
-73487.4
9429.46
-69794.1
8927.89
-66289.3
8449.57
-62959.6
7991.63
-59797.6
7554.19
-56794.3
7137.32
-53943.6
6739.69
-51235.1
6358.51
-48662.7
5995.34
-46219.1
5647.41
-43898.3
5316.31
-41694.2
4999.25
-39599.4
4697.82
-37609.5
4407.81
-35718.6
4130.79
-33922.1
3868.32
-32215.7
3616.2
-30593.4
3375.98
-29052.4
3146.32
-27586.6
2927.33
-26194.7
2719.11
-24872.2
2520.3
-23613.3
2332.42
-22419.5
2151.25
-21280.6
1979.73
-20200.9
1817.92
-19174.6
1664.45
-18197.4
1517.95
-17267.9
1378.46
-16386.1
1246.06
-15544.7
1122.2
-14748.1
1005.5
-13989.1
893.199
-13266.4
788.177
-12580
690.471
-11928.5
598.333
-11308.2
511.977
-10718.6
431.508
-10158.9
356.777
-9627.36
287.735
-9122.84
224.759
-8645.57
167.153
-8193.38
117.213
-7767.2
70.4656
-7370.71
38.0167
-6987.4
1.12077
-6677.67
-5.58072
-6291.4
-45.6509
-6238.26
-5654.83
102035
-543795
96900.6
-516608
92041.9
-490759
87401.2
-466147
83016.2
-442793
78834.9
-420564
74858.3
-399464
71086.1
-379408
67504.3
-360339
64098.4
-342243
60868.3
-325048
57799.4
-308709
54891.5
-293199
52115.3
-278442
49485.3
-264440
46986.8
-251148
44619.7
-238508
42383.8
-226518
40235.2
-215107
38203
-204288
36257.8
-194002
34428.9
-184249
32686.9
-174970
31046.3
-166165
29463.3
-157790
27966.8
-149859
26542.3
-142313
25204.3
-135152
23923.5
-128347
22699.9
-121883
21518.7
-115744
20423.7
-109930
19385.6
-104398
18375.4
-99132.9
17436.5
-94162.8
16525.4
-89415
15656.5
-84918.2
14832.7
-80646
14058.5
-76593.8
13312
-72740.9
12603.4
-69085.5
11926.9
-65612.8
11281.2
-62313.9
10667.7
-59184.1
10082.2
-56208.8
9523.19
-53384.6
8990.9
-50702.8
8482.48
-48154.3
7998.04
-45734.7
7534.77
-43435
7092.79
-41252.2
6672.2
-39178.8
6270.24
-37207.6
5888.46
-35336.8
5522.62
-33556.3
5174.3
-31867.4
4843.58
-30262.7
4526.24
-28735
4225.28
-27285.6
3939.31
-25908.7
3664.14
-24597
3404.14
-23353.3
3155.09
-22170.5
2921.35
-21046.9
2697.26
-19976.8
2482.86
-18960.2
2279.68
-17994.3
2087.74
-17076
1904.24
-16202.6
1732.08
-15372.5
1568.43
-14584.4
1411.97
-13832.7
1265.53
-13120
1127.76
-12442.2
996.039
-11796.8
872.403
-11184.6
756.619
-10602.8
647.827
-10050.1
546.119
-9525.65
451.504
-9028.22
363.743
-8557.81
282.672
-8112.31
209.741
-7694.27
141.989
-7302.96
87.6949
-6933.1
31.8848
-6621.86
6.3998
-6265.91
-49.6687
-6182.19
-5704.5
128823
-536980
122329
-510115
116157
-484587
110311
-460301
104725
-437207
99446.3
-415286
94432.4
-394450
89653.4
-374629
85138.7
-355824
80829.7
-337934
76741.1
-320959
72872.8
-304841
69165.9
-289492
65679.1
-274955
62353.6
-261114
59203.8
-247998
56200.4
-235504
53343.3
-223661
50647
-212411
48082
-201723
45633.7
-191553
43316.6
-181932
41115.9
-172769
39016.9
-164066
37034.2
-155807
35138.4
-147963
33344.1
-140519
31636.5
-133445
30015.6
-126726
28466.8
-120334
27004.4
-114281
25613.9
-108540
24280.6
-103065
23019.1
-97871.4
21814.8
-92958.4
20682.1
-88282.3
19591.9
-83828
18558.8
-79612.9
17574
-75609
16638.9
-71805.8
15746.4
-68192.9
14896.4
-64762.8
14089
-61506.5
13317
-58412.1
12583.3
-55475.1
11885.1
-52686.4
11218.1
-50035.8
10583.8
-47520
9978.02
-45128.9
9402.24
-42859.2
8853.65
-40703.6
8329.49
-38654.7
7831.27
-36709.4
7354.77
-34860.3
6902.97
-33104.5
6470.19
-31434.6
6057.97
-29850.5
5667.83
-28344.9
5294.09
-26911.9
4938.28
-25552.9
4601.9
-24260.6
4279.3
-23030.7
3973.38
-21864.5
3679.95
-20753.4
3403.31
-19700.2
3140.69
-18697.6
2890.7
-17744.3
2651.95
-16837.2
2427.34
-15978
2212.63
-15157.8
2009.31
-14381.1
1817.37
-13640.7
1634.07
-12936.7
1460.85
-12269
1298.55
-11634.5
1144.75
-11030.8
999.488
-10457.6
862.861
-9913.45
734.526
-9397.32
614.241
-8907.94
502.187
-8445.75
397.78
-8007.91
302.231
-7598.72
213.352
-7214.08
137.457
-6857.21
62.9151
-6547.31
18.1717
-6221.17
-53.4149
-6110.61
-5757.92
155245
-528723
147426
-502296
139975
-477135
132910
-453235
126211
-430508
119821
-408896
113756
-388384
108014
-368887
102552
-350362
97369.4
-332752
92451.9
-316042
87755
-300144
83322.6
-285059
79096.1
-270729
75089.8
-257108
71274.2
-244183
67664.1
-231894
64229.7
-220227
60956.5
-209137
57858.9
-198625
54922.2
-188617
52116.9
-179126
49457.7
-170110
46944.3
-161553
44547.4
-153410
42267
-145683
40102.8
-138355
38040.4
-131382
36079.4
-124765
34220
-118474
32461.9
-112523
30761.4
-106839
29176.6
-101480
27663.9
-96358.7
26208.6
-91503.1
24825.3
-86898.9
23528.3
-82531.1
22284.3
-78368.9
21102
-74426.7
19975.5
-70679.3
18903.4
-67120.8
17884.3
-63743.7
16913.7
-60536
15990.4
-57488.8
15109.9
-54594.6
14272.3
-51848.9
13474.9
-49238.3
12714.7
-46759.8
11991.8
-44406
11303.4
-42170.8
10646.7
-40046.9
10021.8
-38029.7
9425.82
-36113.4
8860.32
-34294.8
8319.61
-32563.8
7806.66
-30921.7
7317.2
-29361.1
6849.9
-27877.6
6407.69
-26469.7
5984.88
-25130.1
5582.99
-23858.8
5200.64
-22648.4
4836.46
-21500.4
4490.49
-20407.5
4161.36
-19371
3847.68
-18383.9
3550.92
-17447.5
3269.68
-16556
2999.77
-15708
2745.44
-14903.5
2503.9
-14139.6
2273.81
-13410.6
2057.94
-12720.8
1852.15
-12063.2
1657.33
-11439.7
1473.09
-10846.6
1299.35
-10283.8
1135.21
-9749.32
980.886
-9242.99
835.849
-8762.9
699.842
-8309.75
572.913
-7880.98
455.463
-7481.27
346.23
-7104.85
250.136
-6761.11
157.305
-6454.48
94.2939
-6158.16
8.36479
-6024.68
-5749.55
181271
-519086
172116
-493141
163433
-468452
155166
-444968
147327
-422669
139885
-401455
132812
-381312
126094
-362168
119699
-343968
113644
-326696
107883
-310281
102431
-294692
97229.2
-279858
92307.1
-265807
87620.2
-252421
83168.4
-239731
78937
-227663
74925.6
-216216
71119.6
-205331
67489.5
-194995
64049.9
-185177
60785.9
-175862
57682.7
-167007
54725.8
-158596
51914.8
-150599
49264.5
-143032
46716.1
-135806
44313.4
-128980
42027.1
-122479
39871.7
-116319
37788.8
-110440
35851.2
-104902
33971.4
-99600.5
32192.9
-94580.2
30515.9
-89826.1
28911
-85294
27378.2
-80998.3
25933.5
-76924.3
24552.3
-73045.4
23240.1
-69367.2
21992.8
-65873.5
20804.4
-62555.3
19673.5
-59405.1
18598.8
-56414
17575.9
-53571.6
16600.4
-50873.4
15673.9
-48311.8
14792
-45878
13952
-43566
13151
-41369.8
12390.4
-39286.4
11666.1
-37305.4
10975.2
-35422.5
10317.7
-33637.4
9693.84
-31939.9
9097.77
-30325.6
8531.04
-28794.3
7992.27
-27338.8
7478.66
-25956.1
6990.25
-24641.7
6524.26
-23392.8
6083.56
-22207.7
5662.5
-21079.3
5263.97
-20008.9
4882.32
-18989.4
4521.84
-18023.4
4176.89
-17102.6
3850.33
-16229.5
3540.77
-15398.5
3246.81
-14609.5
2965.69
-13858.5
2701.59
-13146.5
2450.35
-12469.6
2212.01
-11824.9
1985.5
-11213.1
1771.66
-10632.7
1569.4
-10081.6
1378.4
-9558.31
1198.15
-9062.75
1028.41
-8593.16
868.874
-8150.21
719.365
-7731.47
580.215
-7342.12
450.335
-6974.97
333.793
-6644.57
222.608
-6343.3
139.857
-6075.4
39.2883
-5924.11
-5710.26
206795
-508105
196338
-482685
186412
-458526
177005
-435561
168041
-413704
159548
-392962
151469
-373233
143804
-354502
136536
-336700
129608
-319768
123048
-303721
116797
-288442
110871
-273931
105239
-260174
99900.6
-247083
94812.8
-234643
89989.5
-222839
85401.4
-211627
81048.1
-200978
76915
-190862
73001.8
-181264
69264.5
-172125
65717.7
-163460
62346.5
-155224
59150.9
-147404
56101.5
-139983
53212.7
-132917
50469.9
-126237
47858.4
-119867
45378
-113838
43028.7
-108091
40781.2
-102654
38650
-97469.3
36635.1
-92565.3
34707.2
-87898.1
32880.8
-83467.6
31142.8
-79260.3
29484.4
-75265.9
27912.9
-71473.8
26418
-67872.3
24995.4
-64450.9
23642.2
-61202.1
22355.4
-58118.3
21130.7
-55189.4
19965.3
-52406.2
18857.6
-49765.7
17802
-47256.2
16798.5
-44874.4
15842.7
-42610.2
14934.8
-40461.8
14068.9
-38420.5
13246.6
-36483.1
12463.6
-34639.5
11718.5
-32892.3
11008.5
-31229.9
10333.6
-29650.7
9690.96
-28151.7
9079.29
-26727.1
8497.14
-25373.9
7944.56
-24089.1
7418.73
-22866.9
6916.85
-21705.8
6440.36
-20602.8
5987.87
-19556.4
5557.97
-18559.5
5146.48
-17612
4759.03
-16715.1
4388.6
-15859
4038.01
-15047.9
3703.09
-14274.6
3388
-13543.4
3085.82
-12844.4
2800.69
-12184.5
2529.75
-11553.9
2273.65
-10957
2030.77
-10389.8
1800.62
-9851.42
1583.2
-9340.89
1377.49
-8857.04
1183.44
-8399.1
1000.61
-7967.38
828.824
-7559.68
667.952
-7181.25
517.648
-6824.66
380.45
-6507.37
250.436
-6213.28
147.231
-5972.2
32.1104
-5808.99
-5678.15
231775
-495796
220065
-470974
208942
-447404
198367
-424986
188338
-403675
178810
-383435
169755
-364178
161158
-345905
152988
-328531
145232
-312011
137858
-296348
130868
-281452
124232
-267295
117905
-253847
111901
-241080
106222
-228964
100807
-217424
95671.3
-206492
90785.6
-196092
86149.6
-186226
81733.8
-176848
77552.7
-167944
73576.9
-159484
69791.7
-151439
66211.5
-143823
62792.4
-136564
59563.4
-129688
56480.6
-123154
53558.5
-116945
50782.4
-111062
48137.6
-105446
45624
-100141
43241.5
-95086.9
40975.5
-90299.3
38811.4
-85734
36763.6
-81419.8
34816
-77312.8
32964.3
-73414.2
31202.6
-69712.1
29526.5
-66196.2
27934.4
-62858.9
26419.2
-59686.9
24979.4
-56678.5
23607.7
-53817.7
22305.6
-51104.1
21065.7
-48525.9
19885.4
-46075.8
18763
-43752.1
17697.3
-41544.5
16680.9
-39445.5
15715.5
-37455
14793.7
-35561.4
13920
-33765.8
13087.3
-32059.5
12295.4
-30438
11543.1
-28898.4
10826.1
-27434.7
10144.4
-26045.4
9495.1
-24724.7
8878.36
-23472.4
8291.29
-22279.9
7732.52
-21147
7202.04
-20072.3
6697.05
-19051.4
6216.16
-18078.6
5760.75
-17156.6
5326.65
-16281
4915.22
-15447.6
4522.31
-14655
4152.07
-13904.4
3797.56
-13188.9
3462.93
-12509.7
3144.02
-11865.6
2842.6
-11252.5
2556.24
-10670.7
2284.78
-10118.4
2027.63
-9594.28
1783.96
-9097.22
1553.67
-8626.75
1335.9
-8181.34
1130.43
-7761.9
936.896
-7366.15
754.948
-6999.3
584.302
-6654.02
426.914
-6349.99
278.396
-6064.77
154.048
-5847.85
24.8509
-5679.79
-5653.3
256112
-482176
243178
-458041
230890
-435116
219222
-413318
208144
-392597
197598
-372888
187611
-354191
178098
-336391
169071
-319504
160515
-303456
152359
-288191
144629
-273722
137283
-259949
130305
-246869
123681
-234456
117380
-222663
111403
-211448
105721
-200809
100332
-190704
95193.1
-181087
90333.4
-171988
85694
-163305
81304
-155094
77134.1
-147269
73154.8
-139844
69395.3
-132804
65811.5
-126105
62418
-119760
59170.8
-113698
56099.1
-107991
53188
-102535
50408.4
-97361
47760.2
-92438.6
45257.8
-87796.9
42886.6
-83362.8
40614.4
-79147.7
38461.7
-75160.1
36415.2
-71367.7
34470.6
-67767.5
32620.4
-64346
30861.9
-61100.3
29190.5
-58015.5
27599.1
-55087.1
26087.5
-52306.1
24648.7
-49665.2
23279.5
-47156.8
21980.1
-44776.4
20741.8
-42513.8
19564.6
-40367.2
18445.6
-38326.5
17380.6
-36389.9
16368
-34548.8
15403.6
-32801.4
14487.4
-31143.3
13615.1
-29565.8
12784
-28067.2
11995.3
-26646.1
11245
-25295
10531.5
-24011.2
9851.99
-22792.9
9206.54
-21634.4
8592.29
-20532.8
8007.84
-19487.9
7451.79
-18495.4
6925.52
-17552.3
6423.43
-16654.5
5945.5
-15803.1
5491.74
-14993.8
5062.12
-14225.3
4652.45
-13494.7
4264.12
-12800.5
3895.7
-12141.3
3544.47
-11514.3
3211.88
-10919.9
2896.56
-10355.4
2597.26
-9819.08
2313.72
-9310.74
2045.11
-8828.61
1790.67
-8372.3
1550.11
-7940.78
1322.73
-7534.52
1108.16
-7151.59
906.174
-6797.31
716.487
-6464.33
540.417
-6173.91
374.482
-5898.83
231.923
-5705.29
87.5223
-5535.39
-5565.78
279806
-467305
265680
-443914
252257
-421693
239497
-400558
227387
-380486
215880
-361382
204949
-343260
194578
-326020
184709
-309634
175341
-294088
166460
-279310
157992
-265254
149966
-251922
142352
-239256
135106
-227210
128215
-215771
121690
-204924
115476
-194594
109584
-184812
103987
-175490
98654
-166656
93600.4
-158251
88796.4
-150290
84227.3
-142700
79907.6
-135524
75778.6
-128675
71869.4
-122195
68136.1
-116027
64622.4
-110184
61255.1
-104623
58063.3
-99343.4
55032.3
-94330.1
52162.1
-89568.4
49408.8
-85043.6
46801.5
-80755.5
44340
-76686.2
41988
-72808
39754.1
-69133.8
37628
-65641.4
35608.2
-62326.3
33687.5
-59179.6
31861.5
-56189.5
30125.7
-53351.3
28475.8
-50656.2
26906
-48095.3
25414.8
-45665.6
23994.9
-43356.6
22645
-41163.9
21360.6
-39082.9
20140.4
-37106.3
18978.6
-35228.1
17873.7
-33443.9
16824.4
-31752
15824.8
-30143.7
14873.5
-28614.5
13970.7
-27164.3
13111.9
-25787.3
12292.9
-24476.1
11516.5
-23234.8
10775.8
-22052.1
10071.9
-20930.6
9405.05
-19865.9
8769.46
-18852.3
8163.78
-17889.7
7589.38
-16977.9
7043.43
-16108.5
6524.52
-15284.2
6031.24
-14500.6
5562.16
-13756.3
5115.9
-13048.5
4692.41
-12377
4290.29
-11739.2
3909.51
-11133.5
3547.28
-10557.7
3203.46
-10011.5
2877.48
-9493.09
2568.08
-9001.35
2274.98
-8535.51
1997.21
-8094.54
1734.19
-7677.76
1485.17
-7285.5
1250.13
-6916.55
1028.29
-6575.46
819.479
-6255.52
624.442
-5978.88
440.967
-5715.36
280.41
-5544.74
118.944
-5373.92
-5446.84
302741
-451227
287467
-428640
272940
-407166
259149
-386767
246035
-367372
233584
-348931
221753
-331429
210511
-314779
199859
-298982
189708
-283938
180074
-269675
170941
-256121
162249
-243231
153986
-230992
146149
-219374
138710
-208332
131639
-197853
124921
-187877
118527
-178418
112472
-169434
106710
-160894
101242
-152783
96024.6
-145072
91100.4
-137776
86396.5
-130821
81942.1
-124221
77707.6
-117961
73693
-112013
69854.5
-106346
66220.9
-100990
62763.1
-95885.6
59481
-91047.9
56374.3
-86461.7
53413.9
-82083.2
50598.2
-77939.8
47915.5
-74003.5
45371.5
-70264.1
42953.1
-66715.3
40654.4
-63342.6
38470.9
-60142.8
36392.5
-57101.2
34419
-54216
32540.4
-51472.7
30755.1
-48870.9
29058.7
-46399
27445.4
-44052.3
25910.9
-41822.1
24452.3
-39705.2
23065.1
-37695.8
21745.2
-35786.3
20490.9
-33973.9
19298.1
-32251.1
18163.8
-30617.7
17083.7
-29063.6
16057.8
-27588.7
15081.9
-26188.4
14153
-24858.4
13272.5
-23595.6
12432
-22394.3
11634.2
-21254.3
10874.9
-20171.3
10152.6
-19143.7
9467.44
-18167.1
8816.39
-17238.7
8193.95
-16355.5
7605.64
-15520.2
7045.85
-14724.4
6513.16
-13967.9
6006.16
-13249.3
5526.18
-12568.5
5070.42
-11921.3
4637.44
-11306.2
4224.66
-10720.8
3833.77
-10166.8
3462.56
-9640.32
3110.44
-9140.96
2776.27
-8667.19
2459.36
-8218.59
2158.87
-7794.05
1874.1
-7392.99
1604.48
-7015.88
1349.25
-6661.32
1107.89
-6334.11
880.304
-6027.93
666.572
-5765.15
465.039
-5513.82
284.827
-5364.52
107.156
-5196.25
-5339.68
324890
-433957
308483
-412233
292911
-391594
278103
-371959
264031
-353301
250681
-335580
237979
-318727
225926
-302725
214462
-287519
203588
-273064
193245
-259332
183432
-246308
174105
-233905
165251
-222137
156838
-210961
148837
-200332
141234
-190250
134029
-180671
127176
-171566
120662
-162920
114472
-154704
108605
-146916
103032
-139499
97723.9
-132468
92679.9
-125777
87900
-119441
83355.1
-113416
79015.6
-107673
74925.3
-102256
71025.7
-97090.1
67316.5
-92176.5
63797.8
-87529.2
60440.2
-83104.1
57264.1
-78907
54241.5
-74917.3
51368.2
-71130.2
48639.7
-67535.5
46044.1
-64119.8
43577.1
-60875.7
41232.9
-57798.6
39004
-54872.3
36884.7
-52096.7
34873.4
-49461.4
32958.5
-46956
31137
-44577.5
29406.1
-42321.4
27761.3
-40177.3
26196.8
-38140.8
24709.8
-36208.8
23295.9
-34372.4
21949.3
-32627.3
20671.5
-30973.2
19455.1
-29401.4
18298.9
-27907.4
17199.8
-26489.6
16155
-25143.6
15160.3
-23863.6
14214.2
-22649.5
13315.2
-21495.3
12461.9
-20401
11650
-19359.4
10876.6
-18370.3
10141.9
-17432.3
9442.85
-16539.6
8780.82
-15693.5
8148.84
-14888.2
7548.3
-14123.8
6979.08
-13398.7
6438.4
-12708.6
5923.45
-12053.5
5434.18
-11432
4969.71
-10841.7
4529.43
-10280.5
4110.7
-9748.11
3713.33
-9242.95
3335.92
-8763.56
2977.84
-8309.11
2638.12
-7878.87
2315.87
-7471.79
2010.25
-7087.38
1720.56
-6726.18
1446.25
-6387.01
1186.38
-6074.25
940.642
-5782.19
708.596
-5533.1
489.873
-5295.1
289.159
-5163.81
95.3912
-5002.48
-5244.29
346195
-415583
328728
-394767
312111
-374977
296346
-356194
281361
-338315
267127
-321346
253599
-305199
240764
-289890
228548
-275302
216965
-261481
205957
-248324
195480
-235831
185548
-223973
176117
-212706
167143
-201986
158640
-191828
150549
-182159
142856
-172978
135545
-164256
128617
-155992
122028
-148114
115762
-140650
109819
-133557
104171
-126819
98801.1
-120407
93696.1
-114336
88855.4
-108575
84264.1
-103082
79878.4
-97869.9
75712.6
-92924.4
71781.4
-88245.3
68026.2
-83773.9
64455.6
-79533.6
61065.2
-75516.6
57844.6
-71696.7
54785.1
-68070.7
51876.3
-64626.7
49110.9
-61354.4
46485.9
-58250.7
43986.7
-55299.4
41614.6
-52500.3
39358.1
-49840.2
37212.6
-47315.9
35173.9
-44917.2
33237.5
-42641.1
31394.6
-40478.5
29642.4
-38425.1
27977.9
-36476.3
26393.8
-34624.7
24887.3
-32865.9
23456.9
-31196.9
22096.8
-29613.1
20802.7
-28107.2
19571.7
-26676.3
18402.2
-25320.1
17290.1
-24031.5
16232.4
-22805.9
15227.6
-21644.7
14271.5
-20539.2
13361.2
-19490.7
12496.7
-18494.9
11676.5
-17550.1
10894.9
-16650.8
10152
-15796.7
9446.19
-14987.7
8776.11
-14218.1
8138.86
-13486.6
7533.08
-12792.9
6957.3
-12132.8
6410.09
-11506.3
5890.01
-10911.9
5396.57
-10348.3
4927.68
-9811.58
4482.31
-9302.74
4059.45
-8820.08
3657.92
-8362.03
3277
-7928.2
2915.3
-7517.17
2572.15
-7128.64
2246.74
-6761.96
1937.99
-6417.44
1645.35
-6094.38
1367.92
-5796.82
1105.63
-5519.89
857.473
-5284.95
623.48
-5061.11
407.384
-4947.71
199.641
-4794.74
-5044.65
366582
-396106
348086
-376271
330512
-357403
313805
-339487
297937
-322447
282862
-306271
268553
-290890
254937
-276273
242027
-262393
229736
-249191
218079
-236667
207011
-224763
196489
-213450
186482
-202699
176991
-192495
167956
-182794
159392
-173595
151256
-164841
143531
-156531
136175
-148636
129201
-141140
122566
-134015
116268
-127260
110280
-120830
104600
-114727
99198.8
-108935
94047.8
-103424
89175.7
-98209.8
84553.1
-93247.3
80150.7
-88522
75953.8
-84048.4
71984.1
-79804.3
68212.4
-75761.8
64623.9
-71928.1
61214.2
-68287
57972.9
-64829.4
54892.7
-61546.5
51966.3
-58428
49183.4
-55467.7
46539.5
-52655.5
44025.8
-49986.6
41638
-47452.3
39367.2
-45045.1
37209.1
-42759.1
35156.3
-40588.3
33207.4
-38529.6
31353.6
-36571.3
29590.6
-34713.2
27913.9
-32948.1
26322.2
-31274.2
24808.1
-29682.8
23367.3
-28172.3
21998.3
-26738.3
20698.3
-25376.3
19461.5
-24083.3
18283.5
-22853.5
17165.7
-21688.1
16101
-20580
15090.8
-19529
14130.8
-18530.7
13216.5
-17580.7
12346.8
-16680.4
11521.4
-15825.4
10737.5
-15012.7
9990.85
-14241.1
9281.4
-13508.7
8607.73
-12812.9
7966.97
-12152.1
7359.03
-11524.9
6781.12
-10928.4
6232.33
-10363.1
5709.87
-9825.85
5214.07
-9315.77
4743.33
-8832.01
4296.24
-8372.99
3871.76
-7937.55
3468.59
-7525.03
3086.08
-7134.66
2722.83
-6765.39
2378.05
-6417.19
2050.93
-6090.31
1740.55
-5784
1445.78
-5502.05
1166.52
-5240.63
901.426
-5019.85
650.778
-4810.46
416.658
-4713.59
191.035
-4569.12
-4853.61
386022
-375628
366526
-356775
348026
-338903
330436
-321897
313728
-305739
297859
-290402
282783
-275815
268459
-261949
254842
-248776
241917
-236266
229640
-224390
217967
-213090
206884
-202367
196360
-192175
186352
-182487
176859
-173301
167823
-164559
159244
-156262
151105
-148393
143365
-140895
136007
-133782
129031
-127039
122394
-120622
116095
-114531
110104
-108737
104408
-103238
99019.8
-98036.3
93881.6
-93071.6
88993.1
-88358.8
84354.2
-83883.1
79957.4
-79651.5
75767.5
-75614.4
71790.3
-71784.6
68009.7
-68147.5
64418.2
-64695.4
61005.5
-61416.7
57761.4
-58302.4
54678.4
-55345
51749.2
-52538.6
48965.1
-49871.3
46320
-47341.6
43803.9
-44936.2
41413.6
-42654.9
39140.5
-40486
36981.6
-38429.4
34928.2
-36476.1
32975.8
-34618.9
31121.5
-32858.9
29359.5
-31186.1
27682.5
-29597.2
26089.1
-28089.4
24573.4
-26656.6
23132.6
-25297.5
21763.7
-24007.4
20461
-22780.5
19224.3
-21616.8
18048
-20511.8
16929.2
-19461.2
15866.3
-18466.1
14855.2
-17519.5
13894.2
-16619.8
12980.6
-15766.8
12112.9
-14957.7
11288.2
-14188
10503.6
-13456.5
9757.78
-12762.8
9049.15
-12104.3
8376.25
-11479.2
7736.34
-10885
7128.18
-10320.2
6550.33
-9785.27
6001.63
-9277.15
5480.58
-8794.73
4985.51
-8336.94
4515.37
-7902.84
4068.95
-7491.13
3645.1
-7101.18
3242.49
-6732.04
2860.31
-6383.22
2497.53
-6054.4
2152.87
-5745.65
1825.73
-5456.86
1514.76
-5191.08
1219.59
-4945.45
938.375
-4738.64
671.873
-4543.96
418.996
-4460.72
177.081
-4327.21
-4676.53
404430
-354135
384036
-336382
364639
-319506
346225
-303483
328722
-288236
312086
-273766
296290
-260018
281288
-246947
267022
-234510
253492
-222736
240611
-211508
228392
-200872
216777
-190752
205752
-181150
195271
-172006
185320
-163351
175856
-155095
166877
-147283
158340
-139856
150230
-132785
142532
-126084
135217
-119724
128254
-113660
121659
-107936
115388
-102465
109425
-97275.8
103756
-92367.6
98366.9
-87682.1
93256.4
-83248.3
88413.1
-79039.8
83791.7
-75030.1
79405.1
-71227.8
75237.1
-67616.7
71277.5
-64187.9
67514.5
-60932.4
63937.7
-57839.9
60539.8
-54904.5
57310.5
-52115.7
54241
-49469
51325.3
-46955.6
48553.3
-44569.5
45919
-42301.9
43413.6
-40149.5
41035.7
-38108.1
38773.6
-36167.2
36621.3
-34323.9
34579
-32576.5
32636.3
-30916.3
30789
-29338.7
29034
-27842.2
27364.1
-26419.5
25779.3
-25071.8
24270.9
-23789
22837.4
-22573.9
21474.4
-21417.6
20179.1
-20321.5
18947.1
-19279.9
17777
-18291
16664.3
-17353.5
15604.9
-16460.1
14600
-15614.9
13645.4
-14812.2
12735.4
-14047.6
11871.3
-13323.9
11051.6
-12636.8
10272
-11983.3
9529.85
-11362.1
8824.97
-10774.3
8155.91
-10215.9
7520.53
-9684.86
6916.36
-9181.1
6342.35
-8703.14
5796.92
-8249.3
5279.15
-7819.16
4787.16
-7410.86
4319.93
-7023.9
3876.23
-6657.48
3454.89
-6310.71
3054.81
-5983.14
2674.92
-5674.5
2313.95
-5384.69
1970.99
-5113.9
1645
-4865.09
1335.19
-4635.65
1039.54
-4443
759.082
-4263.49
490.69
-4192.32
235.126
-4071.64
-4441.41
421818
-331760
400527
-315091
380321
-299300
361098
-284260
342859
-269997
325517
-256424
309028
-243529
293378
-231297
278522
-219654
264388
-208602
250976
-198096
238226
-188122
226110
-178636
214597
-169637
203674
-161083
193295
-152972
183432
-145232
174069
-137920
165163
-130950
156713
-124335
148675
-118046
141034
-112083
133791
-106416
126900
-101046
120348
-95913.1
114148
-91076.3
108228
-86447.6
102617
-82070.6
97290.5
-77921.8
92216.7
-73966
87402.9
-70216.3
82826.9
-66651.8
78481.5
-63271.2
74351.7
-60058.1
70426
-57006.7
66696.9
-54110.8
63152.6
-51360.2
59785.8
-48748.9
56584.7
-46267.9
53543.4
-43914.4
50651.7
-41677.8
47905.1
-39555.3
45294.9
-37539.3
42812.2
-35625.4
40452.7
-33807.7
38211.9
-32083.1
36081.1
-30445.7
34054.5
-28889.6
32129.1
-27413.3
30299
-26012.2
28561.3
-24681.8
26906
-23416.5
25335.8
-22218.8
23840.6
-21078.7
22420.3
-19997.4
21070.7
-18971.9
19787.4
-17996.5
18567.4
-17071
17406.4
-16192.5
16305.8
-15359.5
15258.5
-14567.6
14261.6
-13815.2
13316.3
-13102.3
12415.6
-12423.3
11560.9
-11782
10747.8
-11170.3
9976.28
-10590.6
9242.1
-10040.1
8544.38
-9518.2
7881.84
-9022.32
7252.39
-8551.65
6654.27
-8105.01
6086.41
-7681.44
5546.69
-7279.44
5034.17
-6898.34
4547.39
-6537.12
4084.99
-6195.08
3645.9
-5871.62
3228.87
-5566.11
2832.45
-5278.08
2456.05
-5008.28
2098.09
-4755.94
1757.49
-4524.48
1433.59
-4311.75
1123.9
-4133.3
829.598
-3969.19
546.001
-3908.73
275.815
-3801.46
-4165.59
438070
-308487
415985
-293006
394970
-278284
375026
-264316
356066
-251037
338062
-238420
320954
-226422
304700
-215043
289256
-204210
274576
-193923
260648
-184168
247397
-174871
234823
-166062
222883
-157697
211531
-149731
200739
-142180
190507
-134999
180760
-128174
171514
-121704
162725
-115545
154391
-109712
146469
-104161
138930
-98877.2
131759
-93874.7
124970
-89124.1
118505
-84611
112377
-80320.2
106553
-76246
101008
-72376.6
95744.6
-68702.9
90742.9
-65214.5
85992.4
-61901.3
81476.8
-58755.7
77186
-55767.3
73109.3
-52930
69236.7
-50238.2
65554.9
-47678.4
62056.5
-45250.5
58732.7
-42944.1
55573.2
-40754.9
52570.7
-38675.3
49717.8
-36702.4
47005.7
-34827.2
44428.5
-33048.3
41980.4
-31359.6
39652.6
-29755.3
37439.3
-28232.4
35336
-26786.4
33336.9
-25414.2
31437.7
-24112.9
29630.9
-22875.1
27915.3
-21700.8
26282
-20585.5
24730.9
-19527.6
23257.8
-18524.3
21855.5
-17569.5
20523.7
-16664.8
19256.9
-15804.2
18054.9
-14990.5
16910.5
-14215.1
15822.4
-13479.4
14788.9
-12781.7
13805.8
-12119.2
12874.4
-11491.8
11986.2
-10893.9
11142.6
-10326.6
10342
-9789.99
9581.05
-9279.2
8857.58
-8794.73
8170.24
-8334.98
7517.27
-7898.68
6896.95
-7484.7
6307.66
-7092.15
5747.92
-6719.7
5216.13
-6366.54
4711.2
-6032.19
4231.64
-5715.52
3775.96
-5415.94
3343.04
-5133.19
2931.96
-4867.01
2540.91
-4617.23
2169.2
-4384.23
1815.07
-4170.35
1477.75
-3974.44
1154.69
-3810.24
846.429
-3660.93
546.497
-3608.8
260.457
-3515.42
-3905.13
453216
-284434
430337
-270126
408630
-256578
387995
-243681
368373
-231415
349750
-219797
332054
-208726
315226
-198214
299251
-188235
284086
-178757
269656
-169738
255963
-161178
242961
-153061
230593
-145328
218843
-137981
207682
-131019
197081
-124398
187024
-118117
177453
-112133
168368
-106460
159739
-101083
151522
-95944.3
143746
-91101.5
136338
-86466.7
129313
-82098.6
122625
-77923.6
116275
-73969.7
110242
-70213
104510
-66644.8
99064.7
-63257.7
93891.3
-60041.2
88975.1
-56985.1
84302.7
-54083.2
79865.1
-51329.7
75647.9
-48712.9
71639.2
-46229.5
67831.6
-43870.8
64213.4
-41632.2
60774.2
-39504.9
57505.2
-37485.9
54400.6
-35570.7
51448.6
-33750.4
48643.4
-32022
45977.6
-30382.4
43443.8
-28825.9
41034.9
-27346.4
38746.2
-25943.8
36572.1
-24612.2
34505.2
-23347.3
32539.6
-22147.3
30671
-21006.5
28896.4
-19926.2
27208.6
-18897.7
25606.1
-17925.1
24080.1
-16998.3
22632.2
-16121.6
21253.5
-15286.2
19945.5
-14496.2
18701.1
-13746.1
17517.2
-13031.3
16393.8
-12356
15326.6
-11714.5
14311.3
-11103.9
13345
-10525.6
12429
-9977.85
11557.9
-9455.52
10729.4
-8961.47
9942.52
-8492.33
9195
-8047.21
8484.66
-7624.64
7809.89
-7223.91
7168.92
-6843.72
6559.87
-6483.1
5981.38
-6141.22
5431.99
-5817.15
4910.05
-5510.25
4414.35
-5219.81
3943.49
-4945.08
3496.09
-4685.8
3070.87
-4441.79
2666.69
-4213.04
2282.21
-3999.76
1915.95
-3804.08
1566.77
-3625.26
1231.87
-3475.33
912.012
-3341.08
598.64
-3295.42
299.88
-3216.66
-3605.25
467153
-259645
443597
-246570
421199
-234180
399931
-222413
379736
-211220
360525
-200586
342284
-190485
324955
-180886
308494
-171774
292843
-163106
277986
-154881
263880
-147071
250451
-139632
237714
-132591
225610
-125877
214110
-119519
203198
-113486
192802
-107721
182950
-102281
173584
-97093.8
164674
-92173.5
156235
-87505.3
148194
-83059.8
140578
-78851.6
133314
-74833.6
126428
-71038.1
119883
-67425.2
113665
-63994.9
107759
-60738.4
102146
-57645.2
96811.8
-54706.5
91744.4
-51917.7
86929.8
-49268.7
82354.7
-46754.6
78008.6
-44366.8
73876.9
-42097.8
69950.8
-39944.7
66220.1
-37901.4
62675.7
-35960.6
59309
-34119.2
56106.7
-32368.4
53064.5
-30708.1
50173.4
-29130.9
47426.2
-27635.2
44814.1
-26213.8
42334.1
-24866.4
39974.5
-23584.2
37732.4
-22370.1
35602
-21216.8
33577.4
-20122.7
31652.6
-19081.8
29822.1
-18095.7
28085.5
-17161.2
26431.5
-16271.1
24861.3
-15428.1
23367.8
-14628
21949.4
-13867.7
20600.3
-13147.2
19317.7
-12463.4
18101.3
-11814.9
16942.8
-11197.5
15841.9
-10613.7
14795.8
-10057.9
13803
-9532.73
12857
-9031.82
11960
-8558.48
11107.1
-8108.64
10296.7
-7681.93
9526.68
-7277.18
8795.15
-6893.1
8100.06
-6528.82
7439.78
-6183.45
6812.58
-5855.9
6216.69
-5545.33
5650.87
-5251.33
5113.24
-4972.62
4602.55
-4709.12
4117.41
-4459.95
3656.53
-4224.92
3218.35
-4003.61
2801.84
-3796.53
2405.38
-3603.3
2027.47