/*--------------------------------*- C++ -*----------------------------------*\
  =========                 |
  \\      /  F ield         | OpenFOAM: The Open Source CFD Toolbox
   \\    /   O peration     | Website:  https://openfoam.org
    \\  /    A nd           | Version:  11
     \\/     M anipulation  |
\*---------------------------------------------------------------------------*/
FoamFile
{
    format      ascii;
    class       surfaceScalarField;
    location    "450";
    object      phi;
}
// * * * * * * * * * * * * * * * * * * * * * * * * * * * * * * * * * * * * * //

dimensions      [0 3 -1 0 0 0 0];

internalField   nonuniform List<scalar> 
62845
(
422018
-1.89559e+06
1.90572e+06
396373
-1.80374e+06
1.82939e+06
379146
-1.71301e+06
1.73023e+06
359562
-1.62671e+06
1.6463e+06
342013
-1.5446e+06
1.56215e+06
324626
-1.46655e+06
1.48394e+06
308471
-1.39216e+06
1.40832e+06
292934
-1.32145e+06
1.33699e+06
278211
-1.2542e+06
1.26892e+06
264183
-1.19031e+06
1.20434e+06
250909
-1.12963e+06
1.1429e+06
238329
-1.07197e+06
1.08455e+06
226292
-1.01712e+06
1.02916e+06
214972
-965149
976469
204104
-915645
926514
193919
-868763
878947
184150
-824096
833865
174883
-781798
791065
166150
-741610
750343
157839
-703384
711696
149884
-667115
675070
142423
-632751
640213
135293
-599989
607119
128532
-568977
575738
122128
-539511
545915
116021
-511490
517597
110250
-484961
490732
104757
-459722
465216
99579.6
-435820
440997
94561.7
-413004
418022
89893.5
-391471
396140
85417.7
-370970
375446
81175.5
-351548
355790
77160.3
-333055
337070
73316.1
-315538
319382
69685.2
-298896
302527
66211.7
-283125
286599
62939.5
-268129
271401
59813.6
-253897
257022
56838.6
-240398
243373
54009.3
-227587
230416
51320.9
-215428
218116
48759.4
-203883
206445
46325
-192932
195366
44004.4
-182534
184855
41798.1
-172668
174874
39688.7
-163302
165411
37686.6
-154420
156422
35774.6
-145982
147894
33954.4
-137981
139801
32218.4
-130382
132118
30563.7
-123174
124828
28978.8
-116326
117911
27474.7
-109836
111340
26035.6
-103670
105109
24659.3
-97811.9
99188.2
23348.1
-92259.9
93571
22091.3
-86984.5
88241.3
20895.7
-81974.7
83170.4
19750.7
-77219.5
78364.5
18654.7
-72703.5
73799.5
17605.9
-68411.4
69460.2
16602.8
-64336.7
65339.8
15643.9
-60464.3
61423.2
14723.5
-56783.6
57704
13844.4
-53283.9
54163
12997
-49954.6
50802
12184.1
-46789.3
47602.2
11408.2
-43781.3
44557.2
10660.3
-40908.5
41656.4
9939.21
-38176.1
38897.2
9247.4
-35569.8
36261.6
8583.57
-33086.7
33750.5
7939.27
-30709.2
31353.5
7320.28
-28437.8
29056.8
6719.09
-26264.5
26865.7
6137.85
-24178.8
24760
5573.82
-22175.5
22739.5
5025.25
-20245.9
20794.4
4490.26
-18383
18918
3967.12
-16578.9
17102
3453.93
-14825.3
15338.5
2949.08
-13113.8
13618.7
2450.31
-11436.3
11935.1
1956.03
-9782.3
10276.6
1466.46
-8147.78
8637.34
978.903
-6517.63
7005.2
512.916
-4923.07
5389.05
-3266.84
3779.75
513232
-1.87238e+06
487501
-1.77801e+06
463525
-1.68903e+06
440475
-1.60366e+06
418454
-1.52258e+06
397390
-1.44549e+06
377418
-1.37219e+06
358400
-1.30243e+06
340308
-1.23611e+06
323161
-1.17317e+06
306846
-1.11332e+06
291341
-1.05646e+06
276679
-1.00246e+06
262689
-951159
249455
-902411
236857
-856165
224930
-812169
213556
-770424
202770
-730825
192559
-693173
182907
-657463
173650
-623495
164928
-591267
156577
-560626
148685
-531620
141242
-504047
134138
-477857
127362
-452946
120905
-429363
114859
-406957
109112
-385725
103610
-365468
98345.7
-346283
93407.5
-328117
88691.3
-310822
84239.2
-294444
79997
-278883
75957.2
-264089
72099.9
-250039
68453.5
-236752
64979.8
-224113
61678.4
-212126
58539
-200744
55548.9
-189942
52702.4
-179688
49996.8
-169962
47423.2
-160728
44968.5
-151965
42634.4
-143648
40407.9
-135755
38291.1
-128265
36271.6
-121154
34351.5
-114406
32514.3
-107999
30762.4
-101918
29097.8
-96147.3
27504.8
-90666.9
25985.9
-85465.6
24534.7
-80523.5
23149.2
-75834
21827.7
-71382
20564.1
-67147.7
19360.9
-63133.5
18203.8
-59307.2
17099.7
-55679.5
16046.9
-52231.1
15039.9
-48947.6
14073.4
-45822.8
13145.9
-42853.8
12256.1
-40018.7
11406.4
-37326.4
10591.6
-34755
9803.14
-32298.2
9046.97
-29953
8321.6
-27712.4
7621.1
-25564
6944.43
-23502.1
6290.15
-21521.2
5656.07
-19611.8
5040.31
-17767.3
4440.8
-15979.4
3855.47
-14240
3281.95
-12540.3
2718.42
-10872.7
2162.56
-9226.44
1613.87
-7599.1
1071.51
-5975.27
546.657
-4398.21
-2720.18
606212
-1.84135e+06
576255
-1.74805e+06
547453
-1.66023e+06
520045
-1.57626e+06
493971
-1.4965e+06
469092
-1.42061e+06
445415
-1.34851e+06
422931
-1.27995e+06
401569
-1.21475e+06
381254
-1.15285e+06
361977
-1.09404e+06
343665
-1.03815e+06
326298
-985093
309757
-934618
294073
-886727
279181
-841272
265060
-798049
251697
-757060
238924
-718052
226826
-681075
215290
-645926
204402
-612608
194050
-580915
184271
-550846
174902
-522251
166034
-495179
157606
-469429
149656
-444997
142079
-421785
134861
-399740
127948
-378812
121477
-358997
115343
-340149
109440
-322214
103909
-305290
98593
-289128
93538.5
-273829
88746.1
-259297
84226.4
-245520
79901.2
-232427
75797.4
-220010
71891.1
-208220
68174.3
-197027
64645.6
-186413
61287.2
-176329
58090.8
-166766
55052.1
-157689
52157.7
-149071
49403.9
-140894
46779.2
-133130
44279.7
-125766
41902.8
-118777
39636.2
-112139
37482
-105844
35423.9
-99859.8
33464.3
-94187.6
31600.5
-88803.1
29817.2
-83682.4
28121
-78827.3
26505.6
-74218.7
24955.9
-69832.3
23483.2
-65675
22072.7
-61723
20735.5
-57970
19453.1
-54397
18224.1
-51002.1
17050.8
-47774.4
15931.8
-44703.7
14857.7
-41779.7
13834.7
-38995.7
12853.8
-36345.5
11909.7
-33811
11008.5
-31397
10145
-29089.5
9311.07
-26878.5
8510.17
-24763.1
7740.06
-22732
6996.85
-20778
6278.9
-18893.8
5584.16
-17072.5
4909.64
-15304.9
4253.4
-13583.7
3612.84
-11899.8
2985.65
-10245.6
2369.47
-8610.26
1762.81
-6992.44
1166.59
-5379.05
584.557
-3816.18
-2135.62
698337
-1.80459e+06
663422
-1.71314e+06
630054
-1.62686e+06
598397
-1.5446e+06
568169
-1.46627e+06
539522
-1.39196e+06
512279
-1.32127e+06
486335
-1.254e+06
461766
-1.19018e+06
438368
-1.12945e+06
416149
-1.07182e+06
395098
-1.0171e+06
374996
-964991
356024
-915646
337961
-868664
320841
-824152
304544
-781752
289056
-741572
274409
-703406
260490
-667156
247235
-632671
234678
-600051
222757
-568994
211411
-539500
200677
-511518
190445
-484947
180752
-459736
171540
-435785
162799
-413044
154470
-391411
146595
-370936
139115
-351518
131972
-333006
125210
-315452
118770
-298850
112696
-283055
106882
-268015
101374
-253788
96134.5
-240280
91161.6
-227454
86428.2
-215276
81928
-203720
77656.1
-192755
73584.5
-182342
69719.8
-172465
66045
-163091
62543.6
-154188
59217.2
-145744
56048.6
-137725
53037
-130118
50172.3
-122901
47440
-116045
44843.7
-109543
42365.8
-103367
40013.1
-97507.1
37765
-91939.5
35623.8
-86661.9
33591.2
-81649.8
31647.8
-76883.9
29795.5
-72366.4
28036.9
-68073.7
26352.6
-63990.7
24749.6
-60119.9
23213
-56433.5
21754.2
-52938.2
20362.5
-49610.5
19032.5
-46444.4
17758.8
-43430
16547.2
-40568.2
15385.1
-37833.5
14274.2
-35234.7
13213.5
-32750.3
12193.7
-30377.3
11217.3
-28113
10284.6
-25945.9
9387.83
-23866.3
8525.37
-21869.6
7695.62
-19948.3
6895.86
-18094.1
6123.35
-16300
5376.11
-14557.6
4650.65
-12858.3
3945
-11194.1
3255.88
-9556.44
2580.79
-7935.16
1917.92
-6329.57
1267.54
-4728.67
626.365
-3175.01
-1509.26
788434
-1.76267e+06
748795
-1.6735e+06
710988
-1.58906e+06
675105
-1.50872e+06
641063
-1.43223e+06
608602
-1.3595e+06
577772
-1.29044e+06
548552
-1.22478e+06
520761
-1.16239e+06
494381
-1.10307e+06
469348
-1.04679e+06
445482
-993233
422913
-942422
401430
-894163
381054
-848288
361674
-804772
343318
-763396
325871
-724124
309267
-686802
293541
-651430
278629
-617758
264415
-585838
250939
-555517
238187
-526748
226047
-499378
214509
-473408
203562
-448789
193146
-425370
183251
-403149
173869
-382028
164989
-362057
156456
-342984
148460
-325010
140843
-307835
133552
-291559
126627
-276129
120111
-261499
113885
-247562
107973
-234368
102349
-221830
97003.6
-209931
91927.9
-198644
87100.8
-187928
82513.3
-177754
78147.2
-168098
73997.4
-158941
70052
-150243
66296.6
-141989
62727.1
-134156
59332.4
-126724
56098.3
-119667
53023.1
-112970
50093
-106613
47310.8
-100584
44655.4
-94851.6
42133.4
-89417.6
39728.7
-84257.1
37434.5
-79355.5
35257.1
-74706.6
33177.2
-70286.5
31196.7
-66093.2
29309.4
-62103.5
27509
-58319.6
25793.9
-54718.3
24157.6
-51301.9
22594.6
-48047.4
21107.2
-44957
19689.3
-42012.1
18327.6
-39206.5
17032.3
-36538.2
15794
-33996.3
14607
-31563.3
13477.5
-29247.8
12392.9
-27028.4
11353.5
-24906.4
10356.8
-22869.6
9400.58
-20913.4
8480.9
-19028.6
7596.12
-17209.3
6742.69
-15446.6
5917.62
-13732.5
5118.31
-12059
4341.43
-10417.2
3583.85
-8798.86
2842.28
-7193.59
2113.9
-5601.19
1398.27
-4013.03
684.384
-2461.13
-824.872
876329
-1.71598e+06
832070
-1.62924e+06
790041
-1.54703e+06
750057
-1.46873e+06
712124
-1.3943e+06
676087
-1.32346e+06
641849
-1.2562e+06
609326
-1.19226e+06
578387
-1.13145e+06
549056
-1.07374e+06
521180
-1.01891e+06
494774
-966827
469612
-917260
445782
-870332
423122
-825628
401595
-783246
381143
-742944
361759
-704741
343359
-668402
325840
-633912
309234
-601152
293478
-570082
278509
-540548
264263
-512502
250730
-485845
237948
-460627
225707
-436548
214145
-413808
203156
-392160
192778
-371650
182804
-352082
173475
-333655
164483
-316018
155972
-299324
147933
-283520
140262
-268459
132951
-254188
126048
-240660
119465
-227785
113216
-215581
107280
-203995
101632
-192996
96263.9
-182559
91165.1
-172655
86317.1
-163250
81702.3
-154326
77320.4
-145861
73152.8
-137821
69188.7
-130192
65413.3
-122948
61827.1
-116081
58415.3
-109558
55165.3
-103363
52073.5
-97492.6
49136.3
-91914.5
46334.4
-86615.7
43669
-81591.6
41133.6
-76820.1
38716.7
-72289.7
36416.1
-67985.8
34220.7
-63897.9
32137.5
-60020.2
30146.9
-56329
28255.7
-52827
26444.9
-49491.2
24725.3
-46327.9
23078.8
-43310.4
21511.5
-40444.8
20017.9
-37712.9
18592.1
-35112.4
17224.9
-32629.1
15925.9
-30264.4
14682.2
-28004.1
13492.1
-25838.2
12350.9
-23765.3
11259.3
-21777.9
10212.6
-19866.7
9207.86
-18023.8
8241.78
-16243.2
7311.31
-14516.1
6413.23
-12834.5
5544.21
-11190
4700.88
-9573.91
3879.28
-7977.27
3075.7
-6390.01
2286.87
-4812.36
1506.56
-3232.71
711.151
-1665.72
-113.721
961697
-1.66478e+06
913016
-1.58056e+06
866789
-1.5008e+06
822962
-1.42491e+06
781222
-1.35256e+06
741670
-1.28391e+06
704052
-1.21858e+06
668348
-1.15656e+06
634491
-1.09759e+06
602248
-1.0415e+06
571692
-988354
542611
-937745
515040
-889689
488840
-844133
463997
-800785
440349
-759598
417932
-720526
396606
-683415
376392
-648188
357192
-614712
339009
-582969
321671
-552744
305220
-524097
289593
-496875
274778
-471030
260663
-446512
247287
-423172
234592
-401113
222517
-380085
211053
-360186
200192
-341222
189825
-323288
179996
-306189
170696
-290023
161819
-274643
153407
-260047
145411
-246192
137795
-233043
130576
-220566
123716
-208721
117193
-197472
110993
-186797
105105
-176671
99504.5
-167055
94180.2
-157926
89122.4
-149268
84308.7
-141047
79734.8
-133248
75383
-125840
71248.7
-118814
67311.7
-112144
63573
-105819
60014.1
-99803.6
56628.8
-94107.3
53405
-88690.7
50340.1
-83550.8
47422.3
-78673.8
44644.2
-74042
41999.5
-69645
39485.8
-65472.2
37091.7
-61503.8
34806.8
-57735.3
32633.3
-54155.5
30564.8
-50758.5
28595.2
-47521.6
26709.9
-44442.7
24923.8
-41524.3
23214.5
-38735.5
21588.3
-36086.8
20031.6
-33555.6
18554.2
-31151.7
17135.5
-28845.7
15784.8
-26653.4
14492.8
-24546.1
13259.4
-22532
12078.6
-20597.1
10947
-18735.1
9862.81
-16939.6
8821.2
-15201.6
7819.88
-13514.8
6855.03
-11869.6
5923.12
-10258
5020.12
-8670.91
4142.34
-7099.49
3284.67
-5532.34
2443.54
-3971.23
1606.39
-2395.57
762.546
-821.876
648.824
1.04439e+06
-1.60917e+06
991540
-1.52771e+06
941330
-1.45059e+06
893596
-1.37717e+06
848336
-1.3073e+06
805332
-1.2409e+06
764474
-1.17773e+06
725675
-1.11776e+06
688825
-1.06074e+06
653834
-1.00651e+06
620594
-955113
589066
-906217
559132
-859755
530632
-815633
503586
-773739
477985
-733997
453604
-696145
430483
-660294
408493
-626197
387638
-593857
367787
-563118
348985
-533942
331121
-506233
314121
-479875
298034
-454943
282697
-431174
268198
-408673
254376
-387292
241274
-366983
228833
-347745
216993
-329382
205748
-312042
195087
-295529
184956
-279892
175297
-264984
166152
-250903
157462
-237501
149205
-224787
141356
-212717
133895
-201260
126810
-190388
120076
-180062
113678
-170273
107591
-160968
101813
-152148
96317
-143773
91089.2
-135819
86120.8
-128279
81403.5
-121122
76911.1
-114322
72644.5
-107877
68575
-101750
64716.5
-95945.1
61041.3
-90432
57547.3
-85196.8
54226.4
-80229.8
51061.8
-75509.2
48052.7
-71033
45187.3
-66779.6
42462.5
-62747.3
39868
-58909.3
37396.4
-55263.7
35046.3
-51805.4
32806.9
-48519.1
30671.7
-45386.4
28643.5
-42414.4
26707.3
-39588.1
24865.8
-36894
23104.9
-34325.9
21434.7
-31885.4
19833.8
-29550.8
18311.9
-27323.7
16856.2
-25197.8
15469.5
-23159.4
14143.3
-21205.8
12875.4
-19329.3
11663
-17522.6
10501.1
-15777.7
9388.02
-14088.6
8318.41
-12445.2
7289.97
-10841.2
6298.14
-9266.21
5338.71
-7711.48
4407.29
-6168.07
3498.94
-4623.99
2608.41
-3080.69
1719.46
-1506.62
866.795
30.7871
1515.62
1.12411e+06
-1.54926e+06
1.06725e+06
-1.47084e+06
1.01321e+06
-1.39655e+06
961893
-1.32586e+06
913174
-1.25858e+06
866817
-1.19455e+06
822903
-1.13381e+06
781104
-1.07596e+06
741426
-1.02107e+06
703832
-968915
668005
-919287
634055
-872267
601798
-827498
571166
-785002
542087
-744659
514449
-706359
488228
-669924
463308
-635375
439680
-602569
417168
-571345
395865
-541815
375561
-513638
356332
-487004
338080
-461622
320685
-437548
304231
-414720
288568
-393009
273730
-372455
259561
-352813
246149
-334334
233437
-316670
221319
-299923
209784
-283994
198877
-268985
188539
-254645
178658
-241021
169294
-228138
160397
-215890
151947
-204266
143914
-193226
136283
-182757
129033
-172812
122136
-163376
115588
-154421
109360
-145919
103438
-137852
97817.9
-130199
92468.8
-122930
87383.8
-116037
82552.4
-109490
77955.9
-103281
73588.5
-97382.4
69429.8
-91786.4
65479.6
-86481.8
61719.4
-81436.5
58139
-76649.4
54739.9
-72110.1
51504.5
-67797.6
48426.2
-63701.3
45495.2
-59816.3
42708.2
-56122.3
40054.6
-52610.2
37527.5
-49278.3
35120.6
-46112.1
32836.1
-43102
30655.2
-40233.4
28576.2
-37509.1
26597
-34914.8
24715.4
-32444.3
22918
-30087.9
21206.6
-27839.5
19575.5
-25692.7
18015.5
-23637.8
16528.7
-21672.6
15109.5
-19786.6
13753
-17972.8
12455.9
-16225.6
11214.7
-14536.4
10024.6
-12898.5
8883.07
-11303.7
7785.02
-9743.12
6726.67
-8207.85
5703.38
-6688.19
4710.22
-5174.92
3741.54
-3655.31
2790.18
-2129.32
1841.41
-557.853
935.931
936.263
2451.55
1.2009e+06
-1.48533e+06
1.14017e+06
-1.41011e+06
1.08245e+06
-1.33883e+06
1.02759e+06
-1.271e+06
975512
-1.2065e+06
926047
-1.14508e+06
879057
-1.08682e+06
834470
-1.03137e+06
792072
-978668
751819
-928663
713659
-881126
677305
-835913
642844
-793037
610150
-752308
579062
-713571
549497
-676794
521506
-641933
494861
-608730
469597
-577305
445604
-547352
422765
-518976
401114
-491987
380549
-466438
360995
-442069
342494
-419048
324845
-397071
308127
-376291
292183
-356511
277153
-337783
262781
-319961
249157
-303046
236222
-286989
223970
-271742
212245
-257259
201139
-243540
190644
-230526
180632
-218125
171125
-206383
162085
-195226
153499
-184641
145340
-174598
137587
-165059
130221
-156010
123222
-147421
116568
-139265
110248
-131531
104235
-124186
98520.8
-117216
93087.3
-110604
87925.8
-104329
83014.7
-98369.6
78344.5
-92712.2
73910.3
-87352.3
69687.8
-82259.3
65671.3
-77420
61856.7
-72834.8
58228.2
-68481.6
54769.1
-64338.5
51488.5
-60420.7
48357.5
-56685.3
45381.6
-53146.4
42557.3
-49785.9
39865
-46586
37298
-43545.2
34858.3
-40662.3
32536.4
-37911.5
30325.4
-35298.1
28219.4
-32808.8
26212.4
-30437.4
24298.6
-28174.1
22476.2
-26017.1
20739.2
-23955.8
19085.5
-21984.1
17506.1
-20093.1
15998.5
-18279
14559.1
-16533.4
13183
-14849.5
11867.1
-13220.5
10606.8
-11638.2
9397.72
-10094.6
8235.95
-8581.36
7117.03
-7088.93
6035.85
-5607.01
4986.95
-4126.02
3963.61
-2631.97
2959.13
-1124.85
1959.86
441.419
994.737
1901.39
3446.29
1.27437e+06
-1.41754e+06
1.20998e+06
-1.34571e+06
1.14872e+06
-1.27757e+06
1.09056e+06
-1.21283e+06
1.03527e+06
-1.15121e+06
982771
-1.09258e+06
932895
-1.03695e+06
885511
-983989
840605
-933761
797845
-885903
757261
-840542
718777
-797429
682181
-756441
647391
-717518
614406
-680585
583100
-645488
553347
-612180
525088
-580471
498213
-550430
472748
-521887
448541
-494769
425567
-469013
403659
-444530
382975
-421384
363238
-399311
344549
-378381
326783
-358526
309937
-339665
293862
-321708
278637
-304736
264157
-288566
250416
-273247
237404
-258731
225016
-244872
213241
-231765
202033
-219318
191404
-207496
181304
-196284
171708
-185631
162596
-175529
153930
-165931
145703
-156832
137876
-148183
130441
-139987
123379
-132204
116667
-124819
110286
-117805
104220
-111150
98456.9
-104841
92973.7
-98845.7
87765
-93160.8
82813.5
-87760.7
78104.9
-82643.6
73624.2
-77778.6
69367.2
-73163
65318.1
-68785.7
61464.4
-64628
57810.7
-60684.8
54322.3
-56932.2
51011.3
-53374.3
47857.7
-49992.8
44857.1
-46785.2
42006.8
-43735.7
39297.1
-40835.5
36706.7
-38071.9
34251.4
-35456.2
31912.5
-32959.2
29683.9
-30580.1
27559.7
-28313.2
25541.7
-26156.2
23620
-24095.4
21789.1
-22124.8
20039.6
-20234.6
18374.5
-18428.1
16786
-16690.4
15270.5
-15018
13823.2
-13402.2
12440.2
-11837.5
11116.8
-10314.9
9849.25
-8827
8633.04
-7365.16
7462.79
-5918.68
6333.77
-4477.99
5240.28
-3032.52
4173.85
-1565.54
3126.76
-77.7546
2089.84
1478.34
1078.69
2912.53
4524.98
1.34446e+06
-1.34598e+06
1.27649e+06
-1.27774e+06
1.21194e+06
-1.21302e+06
1.15056e+06
-1.15146e+06
1.09223e+06
-1.09289e+06
1.0369e+06
-1.03725e+06
984263
-984309
934316
-934042
886825
-886270
841775
-840853
798946
-797713
758314
-756798
719704
-717831
683055
-680869
648233
-645764
615137
-612392
583698
-580742
553900
-550673
525568
-522097
498656
-494975
473075
-469187
448838
-444776
425821
-421513
403914
-399477
383100
-378497
363371
-358652
344625
-339780
326745
-321785
309876
-304839
293805
-288664
278528
-273289
264036
-258755
250223
-244918
237151
-231799
224718
-219332
212904
-207504
201689
-196280
191026
-185621
180895
-175499
171273
-165907
162127
-156785
153435
-148140
145187
-139935
137340
-132140
129879
-124743
122792
-117732
116058
-111071
109658
-104750
103576
-98758
97794.6
-93064.7
92292.1
-87658.4
87068.8
-82537.4
82100.2
-77675
77376.2
-73054.7
72888.7
-68675.5
68620.9
-64517.8
64560
-60567.1
60696.1
-56820.9
57025.6
-53261.7
53537.1
-49885.8
50219.3
-46675.1
47058.9
-43624.8
44053.3
-40730.1
41191.2
-37973.4
38478
-35358.6
35887.9
-32866.1
33422.6
-30493.9
31081.5
-28239
28853.8
-26085.4
26729.6
-24032
24707
-22072.8
22781.8
-20199.5
20950.3
-18403.1
19203.6
-16681.4
17539.1
-15026
15951.2
-13430
14436.7
-11887.6
12990.6
-10391.4
11608.6
-8932.91
10286.3
-7504.74
9018.76
-6097.56
7801.99
-4701.91
6629.67
-3305.67
5495.88
-1898.73
4389.18
-458.839
3307.9
1003.52
2235.71
2550.53
1183.2
3965.03
5708.18
1.411e+06
-1.27102e+06
1.33973e+06
-1.20647e+06
1.27192e+06
-1.14521e+06
1.20756e+06
-1.0871e+06
1.14639e+06
-1.03172e+06
1.08828e+06
-979141
1.03307e+06
-929099
980684
-881654
930841
-836427
883578
-793591
838669
-752804
795944
-714073
755446
-677333
716991
-642413
680424
-609197
645758
-577725
612795
-547779
581468
-519346
551702
-492332
523488
-466762
496673
-442373
471175
-419278
446999
-397338
424021
-376499
402189
-356665
381444
-337907
361770
-320105
343106
-303122
325302
-287036
308392
-271754
292425
-257323
277189
-243519
262709
-230437
248961
-218052
235906
-206277
223506
-195104
211724
-184498
200525
-174422
189898
-164872
179785
-155794
170189
-147189
161065
-139016
152393
-131263
144155
-123902
136332
-116920
128889
-110290
121817
-103999
115099
-98031.8
108708
-92367.4
102634
-86990.2
96865.6
-81890
91382.4
-77054.1
86166
-72458.5
81206.9
-68095.6
76492.9
-63961.6
72012.3
-60037.1
67750.1
-56305
63700.6
-52771.4
59846.6
-49407.8
56179.2
-46218.3
52692.2
-43188.1
49380.9
-40313.6
46226.5
-37575.7
43226.4
-34973.3
40372.3
-32504.5
37659.5
-30153.3
35078.5
-27912.9
32620.2
-25780.8
30280.5
-23745.6
28052.9
-21804.3
25931.5
-19951.4
23912.9
-18181
21989.7
-16479.8
20156.8
-14848.5
18410
-13279.1
16744.2
-11764.3
15154.9
-10298.3
13636.7
-8873.09
12185.7
-7481.96
10797
-6116.01
9465.4
-4765.99
8185.54
-3422.05
6951.41
-2071.54
5755.72
-703.047
4585.67
711.209
3441.06
2148.13
2295.07
3696.53
1168.57
5091.53
6876.76
1.47375e+06
-1.19265e+06
1.39932e+06
-1.13203e+06
1.32859e+06
-1.07448e+06
1.26133e+06
-1.01984e+06
1.19744e+06
-967833
1.13676e+06
-918458
1.07915e+06
-871490
1.02435e+06
-826852
972381
-784462
922932
-744142
876020
-705891
831498
-669551
789167
-635002
748931
-602178
710767
-571033
674462
-541421
640036
-513352
607342
-486652
576305
-461294
546763
-437220
518760
-414369
492133
-392651
466851
-372056
442828
-352475
420045
-333883
398379
-316241
377734
-299461
358212
-283600
339679
-268502
322040
-254116
305238
-240520
289343
-227624
274243
-215338
259884
-203692
246243
-192637
233281
-182142
220967
-172183
209271
-162726
198152
-153754
187592
-145234
177556
-137153
168024
-129484
158964
-122203
150355
-115293
142169
-108734
134400
-102520
127012
-96611.2
119988
-91008.4
113311
-85690.2
106971
-80650.2
100943
-75862.3
95209.6
-71320.3
89761.5
-67010.5
84587.6
-62921.7
79666.9
-59040.8
74980.9
-55351.2
70534.2
-51858.2
66299.1
-48536.3
62278.9
-45387.5
58456.1
-42395.6
54818.6
-39550.6
51355.5
-36850.5
48066.7
-34286.9
44941.8
-31848.5
41963.9
-29526.6
39132.8
-27322.2
36439.8
-25219.8
33876.7
-23217.8
31441
-21309.9
29122.3
-19485.6
26916.2
-17745.4
24813.2
-16077.9
22812
-14478.6
20906.7
-12943.3
19091.4
-11463.8
17361.3
-10034.2
15711.2
-8648.29
14137.4
-7299.23
12633.7
-5978.28
11195.9
-4678.2
9818.97
-3389.07
8497.18
-2100.25
7223.32
-797.682
5989.55
530.726
4789.33
1911.42
3615.25
3322.22
2433.96
4877.82
1267.75
6257.74
8144.5
1.53265e+06
-1.11128e+06
1.4552e+06
-1.05458e+06
1.38166e+06
-1.00094e+06
1.31174e+06
-949920
1.24533e+06
-901421
1.18224e+06
-855365
1.12231e+06
-811560
1.06537e+06
-769911
1.01125e+06
-730344
959879
-692773
911100
-657112
864725
-623176
820696
-590973
778902
-560384
739166
-531298
701472
-503727
665615
-477495
631571
-452608
599280
-429003
568581
-406521
539398
-385186
511730
-364984
485425
-345751
460458
-327508
436718
-310143
414155
-293677
392810
-278116
372464
-263254
353118
-249155
334769
-235767
317368
-223120
300792
-211048
285064
-199610
270117
-188746
255922
-178441
242438
-168658
229623
-159369
217449
-150552
205884
-142189
194896
-134245
184459
-126716
174534
-119560
165110
-112778
156149
-106332
147640
-100226
139550
-94429.6
131860
-88921.7
124558
-83706.1
117620
-78752.6
111020
-74050.2
104750
-69591.8
98786.5
-65357
93121
-61344.9
87735.8
-57536.5
82613.4
-53918.4
77750
-50487.9
73123.7
-47231.9
68725.1
-44137.7
64544.6
-41207.1
60569.9
-38420.9
56788.7
-35769.4
53194.5
-33256.3
49778.7
-30871.2
46529.7
-28599.4
43439.9
-26436.8
40499.5
-24381.7
37703.7
-22424
35048.3
-20562.4
32518.2
-18779.9
30111.9
-17079.3
27822.3
-15455.8
25644.2
-13899.8
23572.2
-12406.6
21599.3
-10970.4
19720.8
-9585.32
17932.1
-8245.47
16227.5
-6943.75
14602.3
-5674
13051.7
-4427.7
11570.8
-3197.29
10154.1
-1972.33
8795.69
-741.886
7487.99
510.023
6226.92
1791.8
5001.15
3137.19
3805.01
4518.37
2598.18
6084.64
1402.72
7453.2
9547.23
1.58741e+06
-1.02687e+06
1.50731e+06
-974478
1.43112e+06
-924748
1.35877e+06
-877564
1.28998e+06
-832634
1.22461e+06
-790000
1.16253e+06
-749481
1.10358e+06
-710960
1.04754e+06
-674303
994375
-639606
943783
-606519
895793
-575186
850186
-545366
806894
-517092
765749
-490153
726699
-464676
689558
-440354
654326
-417376
620840
-395518
589035
-374716
558849
-355001
530166
-336300
502881
-318466
477029
-301656
452458
-285572
429108
-270327
406912
-255919
385809
-242151
365800
-229146
346835
-216802
328758
-205043
311597
-193886
295296
-183309
279814
-173264
265104
-163731
251125
-154680
237849
-146092
225235
-137937
213247
-130202
201864
-122862
191044
-115896
180764
-109279
170990
-103004
161715
-97056.3
152894
-91405.5
144505
-86040
136544
-80961.5
128975
-76136.1
121778
-71556.3
114943
-67214.5
108440
-63089.6
102269
-59185.9
96396.2
-55471.9
90816.3
-51956.7
85512.1
-48614.2
80470.5
-45446.3
75676.3
-42437.7
71122.3
-39583.7
66790.8
-36875.6
62668
-34298.1
58754.5
-31855.8
55036.5
-29538.2
51493.5
-27328.1
48125.5
-25231.5
44929.4
-23240.7
41887.5
-21339.8
38991
-19527.6
36235.3
-17806.7
33620.2
-16164.8
31131.3
-14590.4
28762.6
-13087.1
26508.9
-11646.2
24363.8
-10261.5
22323
-8929.52
20379.8
-7642.12
18529.1
-6394.78
16766.2
-5180.84
15085.5
-3993.29
13482.3
-2824.46
11951.4
-1666.48
10486.1
-506.965
9080.72
663.473
7729.45
1861.3
6425.87
3095.38
5155.9
4407.16
3915.58
5758.69
2659.65
7340.57
1413.84
8699.01
10961.1
1.63814e+06
-939933
1.55542e+06
-891754
1.47688e+06
-846209
1.40216e+06
-802843
1.33125e+06
-761724
1.26382e+06
-722578
1.19973e+06
-685388
1.1389e+06
-650126
1.08113e+06
-616540
1.02621e+06
-584681
974085
-554394
924533
-525635
877468
-498300
832740
-472365
790306
-447718
750003
-424373
711705
-402057
675353
-381024
640785
-360950
607985
-341915
576798
-323814
547166
-306667
519062
-290363
492344
-274938
466942
-260170
442899
-246284
419961
-232981
398219
-220410
377577
-208504
357923
-197148
339281
-186400
321566
-176172
304746
-166489
288758
-157276
273571
-148544
259144
-140253
245436
-132384
232417
-124918
220042
-117827
208286
-111106
197113
-104722
186501
-98667.8
176419
-92921.8
166832
-87470
157722
-82295.1
149073
-77390.7
140848
-72736.8
133029
-68317.6
125602
-64128.8
118544
-60156.4
111841
-56386.8
105460
-52804.8
99404.3
-49416.2
93640.9
-46193.2
88165.9
-43139.2
82964.1
-40244.4
78017.5
-37491.1
73313.1
-34879.2
68840.7
-32403.2
64594.3
-30051.7
60557.5
-27819.1
56713.3
-25694
53064.3
-23679.2
49589.6
-21756.8
46289.2
-19940.2
43148
-18198.7
40165.9
-16545.5
37326.7
-14967.5
34624.5
-13462.5
32057.4
-12023.3
29614.8
-10644.5
27291.2
-9322.5
25081.4
-8051.68
22977.4
-6825.59
20975.3
-5639.96
19068.9
-4488.39
17253.1
-3365.04
15522.5
-2262.72
13872.3
-1174.24
12295.2
-89.4137
10787.5
1000.73
9342.79
2108.2
7954.08
3250
6613.48
4435.98
5305.71
5714.93
4027.39
7037.01
2728.97
8638.99
1438.34
9989.64
12399.4
1.68443e+06
-850421
1.59947e+06
-806790
1.51862e+06
-765358
1.44186e+06
-726091
1.3689e+06
-688760
1.29961e+06
-653284
1.23377e+06
-619548
1.17121e+06
-587566
1.11178e+06
-557109
1.05529e+06
-528190
1.00169e+06
-500799
950721
-474665
902346
-449925
856419
-426438
812764
-404063
771269
-382879
731926
-362714
694464
-343562
658933
-325419
625155
-308137
593137
-291796
562701
-276232
533747
-261408
506213
-247404
480142
-234099
455331
-221472
431803
-209454
409446
-198054
388179
-187237
367994
-176963
348803
-167209
330587
-157956
313273
-149175
296836
-140838
281206
-132914
266367
-125414
252262
-118279
238862
-111518
226134
-105099
214038
-99010.2
202544
-93228.6
191627
-87750.4
181249
-82544
171390
-77611
162026
-72931
153124
-68489
144663
-64275.7
136624
-60278.1
128983
-56488.1
121724
-52897.7
114822
-49484.7
108267
-46249.9
102031
-43179.7
96106.6
-40269.1
90480.4
-37513.1
85125
-34888.9
80040
-32406.2
75204.3
-30043.5
70612.3
-27811.3
66243.7
-25683.1
62086.8
-23662.2
58138.4
-21745.5
54384.7
-19925.5
50824.1
-18196.2
47428.4
-16544.5
44203.2
-14973.5
41139.3
-13481.5
38225.9
-12054.1
35454.7
-10691.4
32820.2
-9388.75
30316.2
-8140.58
27934.1
-6940.4
25668.5
-5786.11
23513.7
-4670.74
21463.5
-3589.81
19513
-2537.8
17656.5
-1508.6
15888.1
-494.33
14202.7
511.222
12595.9
1517.36
11061.5
2535.12
9594.42
3575.29
8186
4658.42
6830.3
5791.68
5510.46
7034.77
4223.74
8323.73
2915.03
9947.7
1615.63
11289
14015
1.72642e+06
-758770
1.63925e+06
-719616
1.55651e+06
-682623
1.47785e+06
-647426
1.40304e+06
-613956
1.33205e+06
-582289
1.26457e+06
-552073
1.20042e+06
-523416
1.13952e+06
-496205
1.08171e+06
-470386
1.02671e+06
-445795
974521
-422477
924971
-400375
877848
-379314
833091
-359306
790567
-340355
750196
-322343
711888
-305253
675445
-288976
640859
-273551
608003
-258940
576731
-244961
547145
-231822
518957
-219216
492226
-207367
466781
-196028
442634
-185307
419694
-175113
397896
-165439
377197
-156264
357538
-147550
338859
-139277
321107
-131422
304240
-123971
288225
-116899
273004
-110193
258547
-103821
244811
-97782.5
231757
-92044.6
219352
-86605.5
207572
-81448.5
196374
-76552
185734
-71904.4
175624
-67501.3
166018
-63324.3
156886
-59357.5
148211
-55600.3
139971
-52038
132139
-48656.7
124692
-45451
117615
-42407
110893
-39527.8
104500
-36786.9
98431.2
-34200.5
92653.4
-31735.3
87170.9
-29406.4
81951.6
-27186.8
76997.1
-25089.1
72285.6
-23099.7
67803.4
-21200.9
63549.1
-19407.9
59507.2
-17703.6
55659.6
-16077.9
52000.1
-14536.7
48528.3
-13072.7
45225.6
-11670.7
42083.1
-10339
39097.9
-9068.91
36259.5
-7852.94
33561
-6690.33
30994.3
-5573.82
28554.4
-4500.51
26234.2
-3465.93
24028.1
-2464.65
21929.5
-1491.17
19933
-541.333
18032.7
391.674
16223.7
1314.74
14499.9
2235.01
12856.5
3160.74
11288.1
4103.53
9788.31
5075.07
8350.15
6096.58
6966.08
7175.74
5619.03
8381.82
4306.78
9635.98
2965.17
11289.3
1636.87
12617.3
15651.9
1.76379e+06
-665152
1.67482e+06
-630644
1.59022e+06
-598026
1.50987e+06
-567077
1.43357e+06
-537652
1.36098e+06
-509699
1.29205e+06
-483148
1.22658e+06
-457940
1.16438e+06
-434011
1.10525e+06
-411256
1.04913e+06
-389671
995834
-369181
945119
-349660
897013
-331208
851302
-313595
807883
-296937
766675
-281135
727444
-266022
690252
-251784
654902
-238201
621291
-225329
589446
-213116
559103
-201479
530380
-190493
502986
-179974
477024
-170065
452343
-160626
428901
-151671
406638
-143176
385485
-135110
365385
-127450
346285
-120177
328152
-113289
310922
-106742
294552
-100529
278990
-94632.1
264210
-89040.6
250164
-83737
236825
-78704.9
224153
-73933.7
212104
-69399.7
200658
-65106
189783
-61029.3
179450
-57168
169627
-53502.1
160302
-50032.1
151432
-46730.2
143004
-43609.9
134996
-40648.7
127387
-37842.3
120154
-35173.5
113276
-32650.1
106751
-30262.2
100538
-27986.9
94638.4
-25836
89028.2
-23796.2
83699.7
-21858.2
78632.4
-20021.8
73814.3
-18281.6
69242.2
-16628.8
64889.5
-15055.2
60753.3
-13567.5
56821.2
-12145.8
53086.9
-10802.3
49529.3
-9515.18
46154.3
-8295.67
42944.7