/*--------------------------------*- C++ -*----------------------------------*\
  =========                 |
  \\      /  F ield         | OpenFOAM: The Open Source CFD Toolbox
   \\    /   O peration     | Website:  https://openfoam.org
    \\  /    A nd           | Version:  11
     \\/     M anipulation  |
\*---------------------------------------------------------------------------*/
FoamFile
{
    format      ascii;
    class       volVectorField;
    location    "450";
    object      U;
}
// * * * * * * * * * * * * * * * * * * * * * * * * * * * * * * * * * * * * * //

dimensions      [0 1 -1 0 0 0 0];

internalField   nonuniform List<vector> 
31595
(
(25.5177 3.30878 -9.05177e-19)
(25.6775 3.40424 3.32881e-19)
(25.6201 3.43182 1.36994e-18)
(25.6346 3.42416 1.53616e-18)
(25.6134 3.42689 0)
(25.6059 3.43171 0)
(25.5833 3.43316 0)
(25.5649 3.43511 1.17141e-18)
(25.541 3.43711 3.55498e-20)
(25.5171 3.4393 0)
(25.4906 3.44159 0)
(25.4631 3.44418 8.64053e-19)
(25.4339 3.44704 -9.10454e-19)
(25.4035 3.45024 1.04834e-18)
(25.3717 3.45378 -1.10473e-18)
(25.3386 3.45771 1.23373e-18)
(25.3042 3.46205 0)
(25.2685 3.46682 -1.54028e-18)
(25.2314 3.47204 3.26855e-18)
(25.193 3.47775 -9.32688e-19)
(25.1532 3.48396 9.83082e-19)
(25.1119 3.49069 0)
(25.0692 3.49797 0)
(25.025 3.50583 1.36553e-18)
(24.9792 3.51428 -6.88812e-19)
(24.9318 3.52334 3.38867e-20)
(24.8827 3.53304 -1.73751e-18)
(24.8319 3.54339 -9.9719e-19)
(24.7793 3.55441 2.14712e-18)
(24.7249 3.56612 -2.32438e-18)
(24.6686 3.57854 0)
(24.6103 3.59166 -6.94244e-19)
(24.5499 3.6055 7.97644e-19)
(24.4875 3.62006 -8.41409e-19)
(24.4228 3.63535 9.48702e-19)
(24.3559 3.65136 -1.05562e-18)
(24.2866 3.66809 5.59617e-19)
(24.2148 3.68554 1.86317e-18)
(24.1404 3.70367 0)
(24.0633 3.72249 -7.65614e-19)
(23.9835 3.74196 1.63726e-18)
(23.9006 3.76208 0)
(23.8147 3.7828 0)
(23.7256 3.80409 -5.62086e-19)
(23.633 3.82593 2.3565e-18)
(23.5368 3.84827 0)
(23.4369 3.87108 -7.33289e-19)
(23.3329 3.8943 1.56898e-18)
(23.2247 3.91789 -8.83657e-19)
(23.112 3.9418 9.59719e-19)
(22.9945 3.96597 -2.60368e-18)
(22.8721 3.99033 5.64181e-19)
(22.7442 4.01483 -1.89655e-18)
(22.6107 4.03939 2.76595e-18)
(22.4711 4.06394 -7.37416e-19)
(22.325 4.08839 -1.6671e-18)
(22.1721 4.11264 -9.42269e-19)
(22.0117 4.1366 -5.39667e-19)
(21.8435 4.16014 -1.14956e-18)
(21.6669 4.18314 1.83604e-18)
(21.4812 4.20546 -1.11044e-20)
(21.2857 4.22693 7.51585e-19)
(21.0798 4.24735 4.03312e-20)
(20.8626 4.26653 -4.25416e-19)
(20.6332 4.2842 5.35725e-19)
(20.3906 4.30008 -2.25802e-18)
(20.1336 4.31384 -6.34744e-19)
(19.8611 4.32508 6.99552e-19)
(19.5716 4.33333 2.34099e-18)
(19.2635 4.33804 5.33465e-20)
(18.9351 4.33854 -1.40126e-18)
(18.5842 4.33404 2.30858e-20)
(18.2087 4.32355 1.22452e-18)
(17.8057 4.30587 0)
(17.3722 4.27954 1.53774e-18)
(16.9047 4.24271 0)
(16.399 4.19308 9.90539e-19)
(15.8501 4.12769 0)
(15.2524 4.04279 0)
(14.599 3.9335 0)
(13.8817 3.79336 1.74077e-18)
(13.0908 3.61386 1.01907e-18)
(12.2145 3.38347 -1.83029e-18)
(11.2392 3.08601 -1.49667e-18)
(10.147 2.70152 8.77793e-19)
(8.92173 2.1914 5.78419e-19)
(7.5376 1.54129 7.73328e-19)
(5.99171 0.582286 -1.04975e-18)
(4.25768 -0.317089 1.6125e-18)
(25.6354 3.3513 2.84549e-18)
(25.6453 3.40584 1.51436e-18)
(25.6474 3.44972 1.28992e-18)
(25.6345 3.44258 -4.42286e-18)
(25.6208 3.44463 0)
(25.6062 3.45024 0)
(25.5871 3.45322 1.97487e-18)
(25.5663 3.45568 0)
(25.5435 3.45862 0)
(25.519 3.46168 -2.6464e-18)
(25.493 3.46493 -4.41833e-18)
(25.4655 3.46846 3.18906e-18)
(25.4367 3.47235 1.76819e-18)
(25.4066 3.4766 3.95383e-18)
(25.3752 3.48125 -2.11512e-18)
(25.3424 3.48633 -1.19721e-18)
(25.3085 3.49187 1.33855e-18)
(25.2732 3.49788 -4.26774e-18)
(25.2366 3.5044 2.41508e-20)
(25.1986 3.51144 -3.43765e-18)
(25.1593 3.51904 0)
(25.1186 3.52721 0)
(25.0765 3.53597 0)
(25.0328 3.54535 0)
(24.9876 3.55538 2.78202e-18)
(24.9408 3.56606 0)
(24.8924 3.57743 3.39064e-18)
(24.8422 3.5895 0)
(24.7903 3.60229 2.03029e-18)
(24.7365 3.61582 1.13506e-18)
(24.6809 3.6301 -1.26316e-18)
(24.6233 3.64514 1.31468e-18)
(24.5636 3.66095 1.46367e-18)
(24.5019 3.67755 -1.67365e-18)
(24.4379 3.69493 1.76567e-18)
(24.3716 3.71309 -1.00881e-18)
(24.303 3.73205 2.15818e-18)
(24.2318 3.75178 -1.20079e-18)
(24.1581 3.77228 0)
(24.0816 3.79355 0)
(24.0023 3.81556 -3.16938e-18)
(23.92 3.8383 -1.6863e-20)
(23.8346 3.86176 0)
(23.7459 3.88589 2.06608e-18)
(23.6538 3.91069 -2.25399e-18)
(23.558 3.93611 -1.23292e-18)
(23.4584 3.96212 0)
(23.3547 3.98869 0)
(23.2467 4.01578 0)
(23.1342 4.04335 9.20202e-19)
(23.0168 4.07135 1.01111e-18)
(22.8944 4.09972 1.11132e-18)
(22.7665 4.12842 1.22186e-18)
(22.6328 4.15739 -1.34388e-18)
(22.493 4.18655 7.09533e-19)
(22.3466 4.21584 -3.14166e-20)
(22.1932 4.24517 1.78448e-18)
(22.0323 4.27446 -9.79001e-19)
(21.8635 4.30361 1.07618e-18)
(21.686 4.3325 -1.16983e-18)
(21.4993 4.361 -6.21829e-19)
(21.3027 4.38898 -2.16778e-18)
(21.0955 4.41625 8.11325e-19)
(20.8767 4.44263 -9.13465e-19)
(20.6454 4.46789 -2.31685e-20)
(20.4007 4.49176 3.3241e-18)
(20.1413 4.51394 -1.22128e-18)
(19.8659 4.53406 2.72525e-18)
(19.5732 4.55169 -2.23343e-18)
(19.2613 4.56628 8.56781e-19)
(18.9285 4.57721 -9.68795e-19)
(18.5726 4.58373 1.04039e-18)
(18.1912 4.58486 -1.80643e-18)
(17.7814 4.57946 1.31086e-18)
(17.34 4.56607 -7.7822e-19)
(16.8632 4.54288 0)
(16.3466 4.50756 1.95841e-18)
(15.785 4.45719 2.24135e-18)
(15.1721 4.38791 2.57947e-18)
(14.5007 4.29476 7.66573e-19)
(13.7618 4.17104 -3.49319e-18)
(12.9451 4.00792 -1.05155e-18)
(12.0375 3.79313 -2.45636e-18)
(11.0245 3.50966 3.70208e-18)
(9.88631 3.13503 1.84527e-18)
(8.60607 2.62969 -4.10567e-18)
(7.15393 1.96734 -2.35439e-18)
(5.53953 0.992959 -5.59294e-18)
(3.64765 0.00326711 9.33099e-18)
(25.6601 3.39865 -2.33902e-18)
(25.654 3.42562 -2.4512e-18)
(25.6565 3.4665 2.57378e-18)
(25.6414 3.46295 1.4376e-19)
(25.6257 3.46353 -3.22218e-18)
(25.6097 3.46919 3.39378e-18)
(25.5906 3.47303 3.82231e-18)
(25.5693 3.47617 -2.06083e-18)
(25.5465 3.47979 0)
(25.5222 3.48369 2.57669e-18)
(25.4963 3.48782 2.83887e-18)
(25.4692 3.49229 -1.56344e-18)
(25.4407 3.49715 -1.72168e-18)
(25.4109 3.50244 -1.95511e-18)
(25.3799 3.50817 2.0282e-18)
(25.3476 3.51439 0)
(25.3141 3.5211 2.56505e-18)
(25.2793 3.52834 2.81317e-18)
(25.2432 3.53613 0)
(25.2058 3.5445 -1.62451e-18)
(25.1671 3.55346 0)
(25.127 3.56304 -2.00097e-18)
(25.0854 3.57327 0)
(25.0424 3.58417 4.91626e-18)
(24.9978 3.59575 -5.25706e-18)
(24.9517 3.60805 -5.81803e-18)
(24.9039 3.62107 -3.29588e-18)
(24.8545 3.63485 1.74874e-18)
(24.8033 3.6494 -1.97802e-18)
(24.7503 3.66475 0)
(24.6953 3.68089 0)
(24.6385 3.69786 -1.32781e-18)
(24.5795 3.71566 2.76969e-18)
(24.5185 3.73429 1.53855e-18)
(24.4553 3.75378 0)
(24.3897 3.77413 0)
(24.3218 3.79533 -2.12083e-18)
(24.2513 3.81739 2.23852e-18)
(24.1783 3.8403 -1.27847e-18)
(24.1024 3.86406 5.4768e-18)
(24.0238 3.88866 3.07796e-18)
(23.9421 3.91409 4.53021e-20)
(23.8573 3.94033 -1.80341e-18)
(23.7691 3.96737 -3.59384e-20)
(23.6774 3.99518 2.21447e-18)
(23.5821 4.02376 -2.38977e-18)
(23.4829 4.05306 1.35175e-18)
(23.3795 4.08307 1.37297e-20)
(23.2718 4.11375 0)
(23.1595 4.14507 -1.74333e-18)
(23.0424 4.17699 -1.91721e-18)
(22.92 4.20948 2.10912e-18)
(22.7921 4.24248 -1.12702e-18)
(22.6584 4.27596 -2.57877e-18)
(22.5184 4.30986 -3.61862e-20)
(22.3718 4.34411 1.59517e-18)
(22.2181 4.37866 -1.6909e-18)
(22.0567 4.41342 -9.70034e-19)
(21.8872 4.44831 3.09662e-18)
(21.709 4.48324 1.11947e-18)
(21.5215 4.51809 1.25645e-18)
(21.3238 4.55274 1.42505e-18)
(21.1153 4.58704 -1.55889e-18)
(20.895 4.62082 0)
(20.6621 4.65388 0)
(20.4153 4.68596 -4.30513e-18)
(20.1536 4.71681 -1.20295e-18)
(19.8756 4.74606 0)
(19.5798 4.77332 0)
(19.2644 4.7981 -1.66527e-18)
(18.9274 4.8198 0)
(18.5668 4.83769 -3.14404e-18)
(18.1798 4.85085 1.14977e-18)
(17.7637 4.85817 2.76009e-20)
(17.3148 4.85822 -3.73262e-18)
(16.8293 4.84922 8.34647e-19)
(16.3024 4.82888 -2.89463e-18)
(15.7286 4.79425 -3.32964e-18)
(15.1013 4.74148 -2.58062e-18)
(14.4126 4.66548 2.98913e-18)
(13.653 4.55941 -3.50453e-18)
(12.8112 4.41411 2.07822e-18)
(11.873 4.21668 2.49303e-18)
(10.8225 3.94934 -6.86957e-18)
(9.63796 3.5872 9.30667e-19)
(8.30098 3.08968 1.82468e-18)
(6.77896 2.41889 8.18481e-19)
(5.08508 1.43305 1.34572e-17)
(3.06373 0.354694 -1.56664e-17)
(25.6775 3.43823 -2.01372e-18)
(25.6629 3.44952 -2.35958e-18)
(25.663 3.48458 -2.35755e-18)
(25.6476 3.48305 2.79238e-18)
(25.6304 3.48287 6.42407e-20)
(25.6135 3.48821 0)
(25.5943 3.49264 6.21434e-20)
(25.5729 3.49641 -2.02022e-18)
(25.5501 3.50066 2.18613e-18)
(25.5259 3.50533 0)
(25.5003 3.51032 2.77177e-18)
(25.4734 3.51569 -2.92055e-18)
(25.4452 3.52152 -3.35813e-18)
(25.4159 3.52782 1.71661e-18)
(25.3853 3.53462 0)
(25.3535 3.54195 0)
(25.3205 3.54983 -2.3822e-18)
(25.2863 3.55828 -2.67158e-18)
(25.2507 3.56733 2.88184e-18)
(25.214 3.577 6.50675e-18)
(25.1758 3.58731 3.37873e-20)
(25.1363 3.5983 -3.85619e-18)
(25.0955 3.60997 -8.95367e-20)
(25.0531 3.62237 -6.95674e-20)
(25.0093 3.6355 5.32472e-20)
(24.9639 3.64938 2.8574e-18)
(24.9168 3.66406 0)
(24.8681 3.67954 1.74594e-18)
(24.8177 3.69584 -3.7599e-18)
(24.7655 3.71299 -2.12567e-18)
(24.7113 3.73099 -9.24628e-20)
(24.6553 3.74988 -2.07161e-20)
(24.5971 3.76966 -2.76459e-18)
(24.5369 3.79035 0)
(24.4745 3.81195 0)
(24.4097 3.83448 -1.85178e-18)
(24.3426 3.85794 -1.61027e-20)
(24.2729 3.88233 0)
(24.2006 3.90766 0)
(24.1256 3.93393 -2.66528e-18)
(24.0476 3.96114 -1.46357e-18)
(23.9667 3.98928 3.15076e-18)
(23.8825 4.01833 3.55038e-18)
(23.795 4.0483 -1.92351e-18)
(23.704 4.07917 4.24361e-18)
(23.6092 4.11093 6.43425e-20)
(23.5106 4.14356 0)
(23.4077 4.17705 -1.41381e-18)
(23.3005 4.21136 3.05171e-18)
(23.1886 4.24648 3.43869e-18)
(23.0718 4.28238 -1.79644e-18)
(22.9497 4.31903 -2.06904e-18)
(22.8221 4.35641 2.27766e-18)
(22.6885 4.39447 0)
(22.5486 4.43318 -2.71815e-18)
(22.402 4.47247 0)
(22.2482 4.51232 0)
(22.0866 4.55266 0)
(21.9169 4.59341 -2.0482e-18)
(21.7382 4.6345 1.14785e-18)
(21.5501 4.67584 1.24819e-18)
(21.3517 4.71732 0)
(21.1423 4.75883 6.50653e-20)
(20.921 4.8002 2.08595e-20)
(20.6867 4.84126 0)
(20.4384 4.88181 1.03531e-18)
(20.1748 4.9216 1.1704e-18)
(19.8946 4.96031 -2.584e-18)
(19.5961 4.9976 0)
(19.2777 5.03298 0)
(18.9372 5.06594 0)
(18.5723 5.09577 1.01085e-18)
(18.1804 5.12161 1.13254e-18)
(17.7584 5.1424 0)
(17.3027 5.15678 -3.09498e-20)
(16.809 5.16302 5.02167e-18)
(16.2724 5.15888 9.48715e-19)
(15.687 5.14145 2.22897e-18)
(15.0458 5.10688 -4.48734e-18)
(14.3403 5.05007 -5.01025e-20)
(13.5603 4.96407 8.76236e-19)
(12.6934 4.83948 -1.07967e-18)
(11.7243 4.66285 1.24062e-18)
(10.6354 4.41567 6.24957e-18)
(9.40273 4.07075 0)
(8.00556 3.58617 5.84058e-18)
(6.40872 2.91203 6.32013e-18)
(4.62289 1.91933 -1.09622e-17)
(2.45698 0.757305 9.83049e-18)
(25.6849 3.47112 3.97626e-18)
(25.6692 3.47279 0)
(25.6682 3.50269 2.30959e-18)
(25.653 3.50253 5.26814e-18)
(25.635 3.50207 -2.78957e-18)
(25.6176 3.50705 -3.14697e-18)
(25.5982 3.5119 7.13315e-18)
(25.5768 3.51626 -7.75777e-18)
(25.5541 3.52113 0)
(25.5301 3.52653 2.42288e-18)
(25.5048 3.53234 -2.55284e-18)
(25.4783 3.5386 0)
(25.4506 3.54537 0)
(25.4217 3.55267 0)
(25.3916 3.56052 3.77938e-18)
(25.3603 3.56895 0)
(25.3279 3.57797 2.33461e-18)
(25.2942 3.58762 -2.59857e-18)
(25.2593 3.59791 -8.52378e-20)
(25.2232 3.60887 -3.03861e-18)
(25.1857 3.62052 -3.52969e-18)
(25.1469 3.63288 7.39782e-18)
(25.1068 3.64599 0)
(25.0652 3.65987 4.43858e-18)
(25.0221 3.67453 4.93495e-18)
(24.9774 3.69 -9.13657e-20)
(24.9312 3.7063 2.92372e-18)
(24.8833 3.72347 0)
(24.8337 3.74151 0)
(24.7823 3.76045 4.02299e-18)
(24.729 3.78032 -2.05989e-18)
(24.6738 3.80112 -2.2882e-18)
(24.6166 3.82288 2.59381e-18)
(24.5572 3.84561 2.84967e-18)
(24.4956 3.86933 -3.23522e-18)
(24.4318 3.89405 5.19161e-18)
(24.3655 3.91977 5.72248e-20)
(24.2967 3.94652 0)
(24.2252 3.97429 -2.28031e-18)
(24.151 4.00309 0)
(24.0739 4.03292 2.75277e-18)
(23.9938 4.06379 -6.11699e-18)
(23.9104 4.09569 -1.71584e-18)
(23.8236 4.12862 -5.36369e-20)
(23.7334 4.16258 -4.12387e-18)
(23.6393 4.19757 4.46887e-18)
(23.5413 4.23356 9.63006e-20)
(23.4391 4.27056 -2.64905e-18)
(23.3324 4.30856 1.45502e-18)
(23.2211 4.34753 -1.60331e-18)
(23.1048 4.38747 1.81529e-18)
(22.9832 4.42835 -6.118e-20)
(22.8559 4.47016 -8.61759e-20)
(22.7227 4.51287 2.35921e-18)
(22.583 4.55646 2.6744e-18)
(22.4366 4.60089 -1.49319e-18)
(22.2829 4.64613 -6.45954e-20)
(22.1214 4.69214 -7.16603e-20)
(21.9515 4.73886 3.88754e-18)
(21.7726 4.78623 -1.1138e-18)
(21.5842 4.83419 -8.85313e-20)
(21.3853 4.88266 3.96592e-18)
(21.1752 4.93152 2.99038e-18)
(20.953 4.98066 -4.93112e-18)
(20.7177 5.02995 -1.87368e-18)
(20.4681 5.07919 2.00037e-18)
(20.2029 5.12818 2.29027e-18)
(19.9208 5.17665 3.39288e-20)
(19.6201 5.22427 0)
(19.2989 5.27065 -1.63071e-18)
(18.9551 5.31529 2.66917e-18)
(18.5864 5.35755 -9.86974e-19)
(18.1899 5.39665 0)
(17.7624 5.43159 -1.32103e-18)
(17.3001 5.46109 1.43417e-18)
(16.7986 5.48348 -3.36046e-18)
(16.2527 5.49661 -3.82049e-18)
(15.656 5.49765 4.40789e-18)
(15.0011 5.48281 5.13744e-18)
(14.2789 5.44704 -1.86502e-20)
(13.4784 5.38331 3.56203e-18)
(12.5861 5.28211 1.09186e-18)
(11.5853 5.12956 -6.41805e-18)
(10.4566 4.90649 -3.20878e-18)
(9.17299 4.58366 0)
(7.71104 4.11738 -5.45904e-18)
(6.03162 3.44644 -8.78947e-18)
(4.13072 2.45561 1.41657e-17)
(1.82709 1.20997 0)
(25.691 3.49813 0)
(25.6742 3.49451 0)
(25.6726 3.52018 0)
(25.6577 3.5211 -2.53434e-18)
(25.6394 3.52069 -2.88699e-18)
(25.6216 3.52543 3.04125e-18)
(25.6023 3.53067 -6.34831e-20)
(25.5811 3.53561 -3.72836e-18)
(25.5586 3.54109 -4.10488e-18)
(25.5349 3.5472 0)
(25.51 3.55382 -4.96676e-18)
(25.4838 3.56096 0)
(25.4566 3.56866 3.00346e-18)
(25.4282 3.57694 0)
(25.3986 3.58583 -3.7149e-18)
(25.3679 3.59534 4.13104e-18)
(25.3361 3.6055 3.50648e-20)
(25.3031 3.61632 0)
(25.2689 3.62784 2.65242e-18)
(25.2334 3.64007 -2.94685e-18)
(25.1967 3.65304 -1.02592e-19)
(25.1587 3.66677 -3.52339e-18)
(25.1192 3.6813 3.87287e-18)
(25.0784 3.69664 -8.62071e-18)
(25.0362 3.71281 -2.39862e-18)
(24.9924 3.72985 2.52945e-20)
(24.947 3.74777 -2.80712e-18)
(24.9 3.76661 0)
(24.8512 3.78638 3.53276e-18)
(24.8007 3.80711 -3.5951e-18)
(24.7484 3.82882 -1.98172e-18)
(24.6941 3.85154 4.58632e-18)
(24.6378 3.87527 -5.12561e-18)
(24.5793 3.90005 -2.91541e-18)
(24.5187 3.92588 -1.22569e-19)
(24.4558 3.95279 6.58089e-18)
(24.3904 3.98078 0)
(24.3226 4.00988 0)
(24.2521 4.0401 -2.01625e-20)
(24.1788 4.07144 -1.52093e-20)
(24.1026 4.10392 -2.70999e-18)
(24.0234 4.13754 -2.72178e-20)
(23.9409 4.1723 -1.67256e-18)
(23.855 4.20822 3.4439e-18)
(23.7656 4.2453 1.91935e-18)
(23.6723 4.28353 0)
(23.5751 4.32293 0)
(23.4737 4.36348 2.65773e-18)
(23.3678 4.40519 -5.70804e-18)
(23.2572 4.44806 0)
(23.1415 4.49208 -5.20888e-18)
(23.0205 4.53724 -2.00978e-18)
(22.8938 4.58354 2.07015e-18)
(22.7611 4.63096 0)
(22.6219 4.6795 2.53989e-18)
(22.4758 4.72913 -1.44719e-18)
(22.3224 4.77984 3.13449e-18)
(22.1611 4.8316 -5.12345e-18)
(21.9914 4.88438 -3.63318e-20)
(21.8126 4.93814 0)
(21.624 4.99283 -2.36909e-18)
(21.4249 5.0484 -2.62727e-18)
(21.2144 5.10477 1.47832e-18)
(20.9917 5.16185 2.18223e-20)
(20.7556 5.21952 1.75393e-18)
(20.505 5.27766 -4.01702e-18)
(20.2386 5.33607 1.04279e-18)
(19.9549 5.39455 2.53088e-18)
(19.6523 5.45281 -1.36563e-18)
(19.3287 5.51051 0)
(18.9821 5.56721 3.49493e-18)
(18.61 5.62236 3.94307e-18)
(18.2093 5.67523 0)
(17.7768 5.72492 -1.3062e-18)
(17.3084 5.7702 2.3359e-20)
(16.7996 5.80955 -4.92633e-18)
(16.2448 5.84091 2.85837e-18)
(15.6372 5.86156 2.16963e-18)
(14.969 5.86779 -1.0282e-17)
(14.2305 5.85464 -1.5578e-18)
(13.4096 5.8151 -9.21951e-19)
(12.492 5.73959 -4.35746e-18)
(11.4591 5.61386 5.22916e-18)
(10.2894 5.41817 -5.83906e-18)
(8.95264 5.12135 1.0465e-18)
(7.42202 4.67751 0)
(5.6501 4.01702 0)
(3.60106 3.03616 1.93251e-18)
(1.1925 1.68905 -6.40047e-18)
(25.6958 3.52059 0)
(25.6781 3.51421 0)
(25.6762 3.53648 0)
(25.6619 3.53845 2.00854e-19)
(25.6436 3.53845 -2.68685e-18)
(25.6258 3.54314 6.01831e-18)
(25.6066 3.54879 -6.57326e-18)
(25.5857 3.55433 1.0995e-17)
(25.5635 3.56045 1.25106e-19)
(25.5401 3.56729 0)
(25.5156 3.57471 4.89609e-18)
(25.49 3.58271 2.72146e-18)
(25.4632 3.59134 -5.82898e-18)
(25.4354 3.60059 0)
(25.4064 3.6105 3.61566e-18)
(25.3764 3.62108 -3.81076e-18)
(25.3452 3.63236 4.16515e-20)
(25.3129 3.64434 -4.60527e-18)
(25.2794 3.65707 2.42967e-20)
(25.2447 3.67056 9.2557e-20)
(25.2087 3.68483 -1.11607e-19)
(25.1715 3.69992 6.8363e-18)
(25.1329 3.71584 -1.01686e-19)
(25.0929 3.73262 8.28384e-18)
(25.0515 3.75029 0)
(25.0086 3.76888 0)
(24.9642 3.78841 0)
(24.9181 3.8089 0)
(24.8703 3.83039 -6.66959e-18)
(24.8208 3.8529 7.28005e-18)
(24.7694 3.87644 8.05466e-18)
(24.7161 3.90105 -2.21122e-18)
(24.6608 3.92676 -4.86353e-18)
(24.6033 3.95357 2.61155e-18)
(24.5437 3.98151 0)
(24.4818 4.01061 -9.71227e-18)
(24.4175 4.04088 -3.62665e-18)
(24.3507 4.07234 -1.99305e-20)
(24.2812 4.10501 0)
(24.209 4.1389 6.23837e-20)
(24.1338 4.17403 0)
(24.0556 4.21041 -2.89541e-18)
(23.9741 4.24805 6.21735e-18)
(23.8892 4.28697 -3.47242e-18)
(23.8007 4.32718 -1.92587e-18)
(23.7085 4.36869 -8.25214e-20)
(23.6122 4.41151 2.24114e-18)
(23.5117 4.45565 0)
(23.4067 4.50111 -2.73386e-18)
(23.2969 4.5479 0)
(23.1821 4.59604 6.71936e-18)
(23.0619 4.64552 -1.89185e-18)
(22.9359 4.69635 2.00472e-18)
(22.8039 4.74853 2.30283e-18)
(22.6654 4.80207 -4.87653e-18)
(22.5199 4.85696 -2.69797e-18)
(22.3671 4.9132 0)
(22.2063 4.97079 3.39853e-18)
(22.0369 5.02971 -1.88099e-18)
(21.8584 5.08994 0)
(21.67 5.15147 -2.26413e-18)
(21.471 5.21426 0)
(21.2605 5.27825 0)
(21.0376 5.34341 -1.60637e-18)
(20.8011 5.40965 3.50552e-18)
(20.55 5.47685 2.05438e-18)
(20.2828 5.5449 9.48959e-20)
(19.998 5.61363 7.04297e-20)
(19.6939 5.68281 0)
(19.3686 5.75214 0)
(19.0197 5.82129 -5.16145e-18)
(18.6447 5.88973 -3.86068e-18)
(18.2406 5.95688 -6.58181e-18)
(17.8037 6.02189 -1.29511e-18)
(17.3302 6.08368 4.31368e-18)
(16.8149 6.14082 3.32846e-18)
(16.252 6.19141 9.78475e-19)
(15.6347 6.23286 -5.52982e-18)
(14.9543 6.26162 5.19896e-18)
(14.2005 6.27287 0)
(13.3604 6.25971 -3.61955e-18)
(12.4185 6.21258 6.68953e-18)
(11.3544 6.11705 -2.65185e-18)
(10.1445 5.953 6.90498e-18)
(8.7544 5.68759 0)
(7.15406 5.27325 0)
(5.28118 4.63762 1.2505e-18)
(3.07737 3.67326 -2.44555e-18)
(0.595176 2.19399 -3.40952e-18)
(25.7003 3.53933 0)
(25.6817 3.53189 0)
(25.6795 3.55148 -4.26481e-18)
(25.6658 3.55452 9.67517e-18)
(25.6477 3.55519 -1.05088e-17)
(25.6299 3.56005 -5.76836e-18)
(25.6111 3.56615 -3.27055e-18)
(25.5905 3.57234 3.48585e-18)
(25.5687 3.57914 1.6427e-19)
(25.5458 3.58671 -8.51152e-18)
(25.5218 3.59494 -3.11968e-20)
(25.4966 3.60381 -5.06426e-18)
(25.4705 3.61335 -2.68082e-18)
(25.4432 3.62357 1.80738e-20)
(25.415 3.6345 1.23389e-19)
(25.3856 3.64614 -7.49515e-18)
(25.3551 3.65851 8.08674e-18)
(25.3236 3.67165 1.65665e-19)
(25.2908 3.68557 -2.33172e-18)
(25.2569 3.70029 -8.0559e-18)
(25.2218 3.71585 -3.04306e-18)
(25.1854 3.73227 -3.24834e-18)
(25.1477 3.74957 -3.67635e-18)
(25.1087 3.76778 2.97234e-20)
(25.0682 3.78693 -1.30776e-17)
(25.0262 3.80705 7.17623e-18)
(24.9827 3.82816 -5.19658e-18)
(24.9377 3.8503 -1.07385e-19)
(24.8909 3.87348 -3.55691e-20)
(24.8424 3.89775 7.02736e-18)
(24.792 3.92312 -7.69708e-18)
(24.7398 3.94962 -4.30122e-18)
(24.6855 3.97728 9.33242e-18)
(24.6292 4.00612 -2.51158e-18)
(24.5707 4.03617 -5.6468e-18)
(24.5099 4.06745 6.17325e-18)
(24.4467 4.09999 3.4497e-18)
(24.381 4.1338 3.79209e-18)
(24.3127 4.16892 -4.04932e-18)
(24.2415 4.20536 2.29173e-18)
(24.1675 4.24314 0)
(24.0904 4.28229 9.76919e-20)
(24.01 4.32282 -2.94991e-18)
(23.9263 4.36476 3.26063e-18)
(23.8389 4.40812 1.85877e-18)
(23.7477 4.45292 -4.01189e-18)
(23.6525 4.49917 2.16452e-18)
(23.5531 4.54691 2.48134e-18)
(23.4491 4.59614 -2.64847e-18)
(23.3404 4.64689 2.89469e-18)
(23.2266 4.69916 -6.50425e-18)
(23.1073 4.75299 1.83272e-18)
(22.9824 4.80839 -1.94264e-18)
(22.8513 4.86537 -2.23374e-18)
(22.7136 4.92395 7.28301e-18)
(22.569 4.98415 -5.25715e-18)
(22.417 5.04598 -1.50968e-18)
(22.2569 5.10945 -1.6276e-18)
(22.0882 5.17458 1.8524e-18)
(21.9103 5.24136 -7.99761e-18)
(21.7224 5.30981 4.44296e-18)
(21.5239 5.37991 -2.53512e-18)
(21.3137 5.45165 4.02041e-18)
(21.0909 5.52501 4.54367e-18)
(20.8545 5.59995 0)
(20.6032 5.67639 0)
(20.3357 5.75427 2.19152e-18)
(20.0503 5.83347 -2.35076e-18)
(19.7453 5.91382 2.6691e-18)
(19.4188 5.9951 0)
(19.0683 6.07703 6.28584e-20)
(18.6911 6.1592 -3.83964e-18)
(18.2843 6.24111 -1.05097e-18)
(17.844 6.32203 1.2256e-18)
(17.366 6.40103 0)
(16.8452 6.47682 4.96066e-18)
(16.2755 6.54766 -1.86178e-18)
(15.6495 6.61115 1.13893e-18)
(14.9581 6.66399 -2.60697e-18)
(14.1905 6.70156 1.50436e-18)
(13.3327 6.71719 3.71897e-18)
(12.3681 6.70153 0)
(11.2743 6.64014 0)
(10.0254 6.51287 7.14629e-18)
(8.58276 6.28561 -9.56848e-18)
(6.9131 5.91103 0)
(4.93166 5.31552 0)
(2.62128 4.36108 -2.66634e-17)
(-0.0361322 2.79141 -3.21064e-17)
(25.7047 3.55505 3.56673e-18)
(25.6853 3.5477 -9.10975e-21)
(25.6826 3.56516 -4.24694e-18)
(25.6695 3.56927 0)
(25.6518 3.57083 -5.26492e-18)
(25.6342 3.57605 1.12643e-17)
(25.6157 3.58269 -6.12087e-18)
(25.5956 3.58957 1.19515e-19)
(25.5743 3.59709 -3.6649e-18)
(25.5518 3.60541 0)
(25.5284 3.61447 4.56942e-18)
(25.5039 3.62421 5.02e-18)
(25.4783 3.63466 -2.62044e-18)
(25.4518 3.64584 2.72936e-18)
(25.4242 3.65777 6.54563e-18)
(25.3956 3.67045 -7.23124e-18)
(25.3659 3.68392 3.76083e-18)
(25.3351 3.69819 4.41633e-18)
(25.3032 3.71328 0)
(25.2702 3.72923 1.05011e-17)
(25.2359 3.74605 -5.78793e-18)
(25.2004 3.76378 9.4495e-18)
(25.1637 3.78244 0)
(25.1256 3.80207 -3.91334e-18)
(25.0861 3.82268 4.10145e-18)
(25.0451 3.84431 4.53562e-18)
(25.0027 3.86699 2.5819e-18)
(24.9586 3.89075 -2.83751e-18)
(24.9129 3.91562 3.11888e-18)
(24.8655 3.94162 0)
(24.8163 3.9688 3.64752e-18)
(24.7652 3.99718 -1.55115e-19)
(24.7121 4.02677 1.96184e-18)
(24.6569 4.05763 -1.00066e-19)
(24.5996 4.08978 8.17158e-18)
(24.54 4.12323 1.20552e-19)
(24.478 4.15803 1.32365e-19)
(24.4135 4.1942 -7.07106e-18)
(24.3463 4.23177 4.01888e-18)
(24.2764 4.27076 -2.22294e-18)
(24.2036 4.3112 -9.64533e-20)
(24.1277 4.35312 5.25832e-18)
(24.0486 4.39654 -2.96048e-18)
(23.9661 4.4415 -3.24895e-18)
(23.8799 4.48801 -1.29082e-19)
(23.79 4.53611 9.57917e-18)
(23.696 4.58582 -4.26605e-18)
(23.5978 4.63717 2.30298e-18)
(23.495 4.69019 0)
(23.3875 4.74491 -2.81161e-18)
(23.2748 4.80136 6.2939e-18)
(23.1567 4.85956 1.7748e-18)
(23.0329 4.91955 -3.70401e-18)
(22.9029 4.98137 -2.07887e-18)
(22.7664 5.04503 0)
(22.6228 5.11058 2.62623e-18)
(22.4717 5.17805 1.01963e-19)
(22.3126 5.24747 1.02215e-19)
(22.1449 5.31887 0)
(21.9678 5.39228 7.82381e-18)
(21.7808 5.46773 0)
(21.5829 5.54524 2.38735e-18)
(21.3733 5.62483 -2.72334e-18)
(21.1511 5.70652 -3.03563e-18)
(20.915 5.7903 -1.5965e-18)
(20.6639 5.87616 -1.83509e-18)
(20.3964 5.96406 0)
(20.1109 6.05395 0)
(19.8055 6.14574 -2.67588e-18)
(19.4781 6.23927 -1.52906e-18)
(19.1265 6.33436 1.71999e-18)
(18.7477 6.43068 3.86073e-18)
(18.3387 6.52785 6.6189e-18)
(17.8956 6.6253 -2.42685e-18)
(17.4138 6.72223 2.81815e-18)
(16.8882 6.81753 -5.91795e-20)
(16.3123 6.9097 3.76674e-18)
(15.6783 6.99657 0)
(14.9768 7.07513 0)
(14.196 7.14108 -6.16903e-18)
(13.3212 7.18811 1.92991e-18)
(12.3343 7.20725 1.13995e-18)
(11.211 7.18436 1.40943e-18)
(9.92284 7.09966 -5.62029e-18)
(8.42634 6.91842 -2.38434e-18)
(6.68419 6.59627 1.323e-17)
(4.58791 6.04819 -2.22088e-17)
(2.18882 5.10697 -2.998e-18)
(-0.751758 3.49928 1.90975e-19)
(25.7089 3.56824 2.79747e-18)
(25.6891 3.56178 0)
(25.6857 3.57758 4.1551e-18)
(25.6732 3.58275 0)
(25.6559 3.58536 5.11528e-18)
(25.6386 3.59109 -5.38904e-18)
(25.6206 3.59834 3.01622e-18)
(25.601 3.60597 6.6881e-18)
(25.5802 3.61425 -7.23822e-18)
(25.5583 3.62336 -1.60595e-19)
(25.5355 3.63324 4.26917e-18)
(25.5116 3.64386 0)
(25.4868 3.65522 5.32505e-18)
(25.4609 3.66736 -5.84766e-18)
(25.4341 3.68028 -6.33705e-18)
(25.4063 3.694 3.38444e-18)
(25.3774 3.70854 -1.36221e-19)
(25.3475 3.72393 0)
(25.3165 3.74018 -4.51953e-18)
(25.2843 3.75733 -1.01024e-17)
(25.251 3.7754 2.82252e-18)
(25.2165 3.79442 -6.09771e-18)
(25.1807 3.81442 -3.29157e-18)
(25.1436 3.83544 0)
(25.1052 3.85749 3.97433e-18)
(25.0653 3.88061 4.36751e-18)
(25.0239 3.90484 0)
(24.981 3.9302 0)
(24.9365 3.95673 0)
(24.8902 3.98447 1.28402e-19)
(24.8421 4.01343 -3.48234e-18)
(24.7922 4.04366 -7.83379e-18)
(24.7403 4.07519 -4.38451e-18)
(24.6864 4.10805 4.65452e-18)
(24.6303 4.14228 -2.55924e-18)
(24.572 4.1779 -2.81438e-18)
(24.5113 4.21495 3.21843e-18)
(24.4481 4.25346 2.59795e-19)
(24.3822 4.29347 -3.73944e-18)
(24.3137 4.335 -6.26358e-18)
(24.2422 4.3781 2.26369e-18)
(24.1676 4.42279 0)
(24.0898 4.4691 -2.85601e-18)
(24.0087 4.51708 3.122e-18)
(23.9239 4.56675 -3.44547e-18)
(23.8353 4.61815 -3.79537e-18)
(23.7426 4.67133 -4.04924e-18)
(23.6458 4.7263 0)
(23.5444 4.78313 -2.46245e-18)
(23.4381 4.84183 2.8039e-18)
(23.3268 4.90246 -9.45389e-20)
(23.2101 4.96506 0)
(23.0876 5.02967 1.87436e-18)
(22.9589 5.09635 4.11798e-18)
(22.8236 5.16513 -4.55603e-18)
(22.6813 5.23606 2.46948e-18)
(22.5315 5.30921 5.68175e-18)
(22.3735 5.38461 -6.08158e-18)
(22.2069 5.46233 0)
(22.031 5.54242 -3.86509e-18)
(21.845 5.62494 -4.1811e-18)
(21.6481 5.70994 -2.39113e-18)
(21.4395 5.79747 -2.69131e-18)
(21.2181 5.88758 1.37394e-18)
(20.9827 5.98032 4.92894e-18)
(20.7322 6.07571 -1.88015e-18)
(20.4651 6.17378 6.08295e-18)
(20.1798 6.27454 -2.37016e-18)
(19.8744 6.37797 3.88553e-18)
(19.5468 6.48398 1.46643e-18)
(19.1945 6.59248 3.36697e-18)
(18.8147 6.70328 0)
(18.4041 6.8161 2.20913e-18)
(17.9587 6.93052 -1.14437e-18)
(17.474 7.04593 -5.69613e-18)
(16.9443 7.16142 -1.49682e-19)
(16.3631 7.2757 -3.93604e-18)
(15.722 7.38693 1.02981e-18)
(15.0113 7.49241 2.63946e-18)
(14.2184 7.58825 1.10564e-17)
(13.3276 7.66857 -1.96757e-18)
(12.3195 7.72493 -1.18322e-17)
(11.1675 7.74366 -5.95211e-18)
(9.84074 7.70556 7.85562e-18)
(8.29008 7.57591 2.21914e-17)
(6.47283 7.31315 -1.74513e-17)
(4.27005 6.80718 3.26545e-17)
(1.76282 5.90316 -1.98465e-18)
(-1.48954 4.29577 2.88217e-17)
(25.713 3.57932 5.61047e-18)
(25.6929 3.57429 3.94876e-18)
(25.6889 3.58883 4.01623e-18)
(25.6769 3.59501 0)
(25.6602 3.59877 0)
(25.6432 3.60517 0)
(25.6256 3.61309 5.94417e-18)
(25.6066 3.6215 -3.02657e-18)
(25.5864 3.63058 3.43973e-18)
(25.5652 3.6405 -3.91277e-18)
(25.543 3.65123 4.1232e-18)
(25.5199 3.66272 4.70653e-18)
(25.4957 3.67501 -4.96005e-18)
(25.4707 3.68809 0)
(25.4447 3.702 2.97692e-18)
(25.4177 3.71674 -2.55816e-21)
(25.3897 3.73234 -3.60125e-18)
(25.3607 3.74883 -3.954e-18)
(25.3306 3.76622 4.50545e-18)
(25.2994 3.78455 1.81057e-19)
(25.2671 3.80385 2.72753e-18)
(25.2336 3.82414 1.10854e-19)
(25.1989 3.84546 3.28194e-18)
(25.1629 3.86784 -3.47209e-18)
(25.1255 3.89131 -7.93782e-18)
(25.0868 3.9159 4.02992e-18)
(25.0465 3.94165 4.80058e-18)
(25.0048 3.9686 -7.49001e-18)
(24.9614 3.99677 -2.78341e-18)
(24.9164 4.02621 3.17843e-18)
(24.8696 4.05694 -3.36344e-18)
(24.821 4.08901 1.54682e-19)
(24.7704 4.12244 -4.06652e-18)
(24.7178 4.15729 -9.11594e-18)
(24.663 4.19358 2.55366e-18)
(24.606 4.23135 -8.48112e-21)
(24.5467 4.27063 -1.23611e-19)
(24.4849 4.31148 9.94644e-18)
(24.4204 4.35391 3.75185e-18)
(24.3533 4.39798 2.21539e-18)
(24.2832 4.44371 -2.18214e-18)
(24.2101 4.49116 0)
(24.1338 4.54036 2.75597e-18)
(24.0541 4.59135 1.09475e-19)
(23.9708 4.64417 3.21504e-18)
(23.8837 4.69888 3.6877e-18)
(23.7926 4.75551 -3.76356e-18)
(23.6972 4.81411 0)
(23.5973 4.87472 -1.18284e-20)
(23.4926 4.93742 -1.10117e-19)
(23.3828 5.00224 -3.12452e-18)
(23.2676 5.06923 6.53649e-18)
(23.1466 5.13847 9.15307e-21)
(23.0194 5.21 -3.92603e-18)
(22.8856 5.2839 -2.08793e-18)
(22.7448 5.36023 -4.80936e-18)
(22.5965 5.43907 2.67118e-18)
(22.44 5.52048 -2.19893e-20)
(22.2749 5.60454 6.57311e-18)
(22.1004 5.69134 -1.90282e-18)
(21.9158 5.78095 6.23051e-18)
(21.7203 5.87347 0)
(21.5129 5.96898 0)
(21.2928 6.06758 0)
(21.0586 6.16933 -3.17055e-18)
(20.8092 6.27433 0)
(20.543 6.38268 -4.10394e-18)
(20.2585 6.49441 4.49232e-18)
(19.9537 6.60959 -1.31635e-18)
(19.6265 6.72824 -1.52102e-18)
(19.2743 6.85035 -1.68826e-18)
(18.8943 6.97588 3.60675e-18)
(18.483 7.10464 2.09039e-18)
(18.0365 7.23639 4.83958e-18)
(17.5499 7.37069 0)
(17.0174 7.50689 -3.309e-18)
(16.4323 7.64397 -1.96082e-18)
(15.7859 7.78041 2.18966e-18)
(15.0678 7.91389 -1.37041e-18)
(14.2649 8.04098 -4.9114e-18)
(13.3607 8.15641 0)
(12.3342 8.25238 2.03159e-19)
(11.1569 8.31589 4.72017e-18)
(9.79516 8.3288 -1.26321e-17)
(8.19315 8.25705 -1.68388e-17)
(6.30366 8.05713 -2.02307e-17)
(3.98503 7.60936 2.80016e-17)
(1.34547 6.77846 -2.33719e-17)
(-2.22476 5.18445 -1.07105e-17)
(25.717 3.58862 3.36876e-18)
(25.697 3.58537 -1.16066e-17)
(25.6922 3.59899 -4.01307e-18)
(25.6807 3.60614 0)
(25.6645 3.6111 0)
(25.648 3.61828 -5.09941e-18)
(25.6309 3.62693 -1.1315e-17)
(25.6125 3.63616 6.06756e-18)
(25.5929 3.64607 -3.43725e-18)
(25.5724 3.65682 0)
(25.5509 3.6684 3.98027e-18)
(25.5286 3.68078 0)
(25.5053 3.69397 0)
(25.481 3.708 0)
(25.4559 3.72288 -2.98741e-18)
(25.4298 3.73863 6.43164e-18)
(25.4027 3.75528 3.59944e-18)
(25.3747 3.77284 -7.37286e-21)
(25.3456 3.79136 8.52164e-18)
(25.3154 3.81085 -4.39448e-18)
(25.2841 3.83136 2.62188e-18)
(25.2517 3.8529 -8.40495e-18)
(25.2181 3.87551 -1.26765e-19)
(25.1832 3.89923 6.80759e-18)
(25.147 3.92409 -3.81963e-18)
(25.1095 3.95013 -8.38209e-18)
(25.0705 3.97738 1.34605e-17)
(25.0299 4.00588 1.96901e-19)
(24.9879 4.03567 2.78685e-18)
(24.9441 4.06678 -5.87609e-18)
(24.8986 4.09926 3.36409e-18)
(24.8513 4.13314 3.69889e-18)
(24.8021 4.16847 0)
(24.7509 4.20528 6.71393e-18)
(24.6976 4.2436 -7.0885e-18)
(24.642 4.2835 -2.59834e-18)
(24.5842 4.325 2.98293e-18)
(24.5238 4.36815 -3.14581e-18)
(24.4609 4.413 -3.46891e-18)
(24.3953 4.45958 -3.81472e-18)
(24.3268 4.50794 2.19067e-18)
(24.2552 4.55813 -2.31625e-18)
(24.1805 4.61019 -1.08624e-19)
(24.1024 4.66418 2.81242e-18)
(24.0207 4.72015 -6.32115e-18)
(23.9352 4.77814 3.41839e-18)
(23.8457 4.83821 3.91882e-18)
(23.752 4.90042 6.33283e-18)
(23.6538 4.96483 -4.59708e-18)
(23.5508 5.03151 2.64603e-18)
(23.4427 5.1005 -5.61338e-18)
(23.3292 5.17188 3.10555e-18)
(23.2099 5.24574 -3.56317e-18)
(23.0845 5.32214 5.92599e-18)
(22.9525 5.40115 6.88101e-20)