/*--------------------------------*- C++ -*----------------------------------*\
  =========                 |
  \\      /  F ield         | OpenFOAM: The Open Source CFD Toolbox
   \\    /   O peration     | Website:  https://openfoam.org
    \\  /    A nd           | Version:  11
     \\/     M anipulation  |
\*---------------------------------------------------------------------------*/
FoamFile
{
    format      ascii;
    class       volVectorField;
    location    "450";
    object      U;
}
// * * * * * * * * * * * * * * * * * * * * * * * * * * * * * * * * * * * * * //

dimensions      [0 1 -1 0 0 0 0];

internalField   nonuniform List<vector> 
31595
(
(7.33705 -0.0278814 -4.39417e-20)
(7.35494 -0.0187245 3.49181e-20)
(7.3452 -0.0188583 8.77419e-20)
(7.35006 -0.0193412 9.45777e-20)
(7.34593 -0.0191799 0)
(7.34688 -0.0190273 0)
(7.34397 -0.0190608 0)
(7.34334 -0.0189407 8.11755e-20)
(7.34096 -0.0188545 4.13966e-21)
(7.33952 -0.0186994 0)
(7.33729 -0.0185385 0)
(7.33544 -0.0183245 6.26013e-20)
(7.33322 -0.0180905 -6.59118e-20)
(7.33113 -0.0178148 7.67708e-20)
(7.32886 -0.0175133 -8.08303e-20)
(7.32662 -0.0171769 9.0942e-20)
(7.32429 -0.016814 0)
(7.32196 -0.016422 -1.13255e-19)
(7.31957 -0.016006 2.40436e-19)
(7.31717 -0.0155671 -6.82003e-20)
(7.31475 -0.01511 7.18045e-20)
(7.31231 -0.0146382 0)
(7.30986 -0.0141573 0)
(7.30742 -0.013673 9.73859e-20)
(7.30497 -0.0131929 -4.94729e-20)
(7.30254 -0.0127253 1.8788e-21)
(7.30012 -0.0122802 -1.21979e-19)
(7.29773 -0.0118691 -6.81144e-20)
(7.29537 -0.0115052 1.45537e-19)
(7.29305 -0.0112036 -1.56429e-19)
(7.29077 -0.0109813 0)
(7.28854 -0.0108575 -4.60284e-20)
(7.28637 -0.0108534 5.03233e-20)
(7.28426 -0.0109927 -5.29847e-20)
(7.28222 -0.0113013 5.75578e-20)
(7.28024 -0.0118075 -6.26667e-20)
(7.27833 -0.012542 3.21888e-20)
(7.27649 -0.0135376 1.07434e-19)
(7.27472 -0.0148297 0)
(7.273 -0.0164558 -4.1349e-20)
(7.27135 -0.0184555 8.69304e-20)
(7.26974 -0.0208704 0)
(7.26816 -0.0237443 0)
(7.26661 -0.0271224 -2.76362e-20)
(7.26506 -0.0310521 1.15138e-19)
(7.2635 -0.0355824 0)
(7.26191 -0.040764 -3.28819e-20)
(7.26025 -0.0466493 6.85428e-20)
(7.25852 -0.0532927 -3.76027e-20)
(7.25667 -0.0607505 3.86472e-20)
(7.25467 -0.0690809 -1.09264e-19)
(7.2525 -0.0783449 1.98557e-20)
(7.25012 -0.0886061 -7.6236e-20)
(7.24749 -0.099931 1.08461e-19)
(7.24457 -0.11239 -2.65103e-20)
(7.24132 -0.126059 -5.97916e-20)
(7.2377 -0.141015 -3.39265e-20)
(7.23365 -0.157346 -2.22845e-20)
(7.22914 -0.175142 -4.14902e-20)
(7.22411 -0.194502 6.67673e-20)
(7.21851 -0.215537 -1.98484e-21)
(7.21228 -0.238364 2.75275e-20)
(7.20536 -0.263113 -2.68677e-21)
(7.1977 -0.289929 -1.31092e-20)
(7.18922 -0.318973 2.06853e-20)
(7.17986 -0.350423 -7.8541e-20)
(7.16954 -0.38448 -2.45097e-20)
(7.15819 -0.421374 2.14775e-20)
(7.14572 -0.461359 8.20173e-20)
(7.13206 -0.504731 4.48338e-21)
(7.11711 -0.551825 -4.58867e-20)
(7.10078 -0.603028 9.21462e-22)
(7.08298 -0.658799 4.16046e-20)
(7.0636 -0.719637 0)
(7.04257 -0.786236 5.2995e-20)
(7.01977 -0.859129 0)
(6.99517 -0.939683 2.76324e-20)
(6.96867 -1.02779 0)
(6.94028 -1.12738 0)
(6.91021 -1.23405 0)
(6.8778 -1.36277 4.74535e-20)
(6.84642 -1.48839 2.12645e-20)
(6.80768 -1.67033 -3.36522e-20)
(6.78724 -1.80179 -2.77681e-20)
(6.72595 -2.09654 1.24351e-20)
(6.76954 -2.18933 4.23842e-21)
(6.6136 -2.71845 6.29232e-21)
(6.97502 -2.74326 2.06616e-21)
(6.40492 -3.76126 -2.26338e-21)
(7.34678 -0.0243877 1.7966e-19)
(7.34979 -0.0184209 8.40272e-20)
(7.34909 -0.0168332 6.68987e-20)
(7.34831 -0.0177771 -2.76328e-19)
(7.34726 -0.0175202 0)
(7.34617 -0.0173705 0)
(7.34462 -0.0173111 1.34101e-19)
(7.34308 -0.0172195 0)
(7.34132 -0.017071 0)
(7.33951 -0.0169093 -1.87484e-19)
(7.33757 -0.0167063 -3.16465e-19)
(7.33557 -0.0164732 2.29309e-19)
(7.33349 -0.0162037 1.28514e-19)
(7.33136 -0.0159035 2.88673e-19)
(7.32916 -0.0155706 -1.54218e-19)
(7.32692 -0.0152086 -8.74182e-20)
(7.32464 -0.0148182 9.81858e-20)
(7.32232 -0.0144027 -3.13591e-19)
(7.31996 -0.0139642 2.04581e-21)
(7.31758 -0.0135065 -2.5163e-19)
(7.31517 -0.0130335 0)
(7.31274 -0.0125499 0)
(7.3103 -0.0120613 0)
(7.30785 -0.0115743 0)
(7.30539 -0.0110964 1.98456e-19)
(7.30294 -0.0106366 0)
(7.3005 -0.0102049 2.3622e-19)
(7.29806 -0.00981296 0)
(7.29565 -0.00947403 1.39175e-19)
(7.29326 -0.00920298 7.57493e-20)
(7.29089 -0.00901659 -8.31135e-20)
(7.28856 -0.00893357 8.63079e-20)
(7.28626 -0.00897455 9.46705e-20)
(7.284 -0.00916232 -1.04858e-19)
(7.28179 -0.00952179 1.10415e-19)
(7.27961 -0.01008 -6.09027e-20)
(7.27747 -0.0108661 1.28627e-19)
(7.27538 -0.0119117 -6.93087e-20)
(7.27331 -0.0132502 0)
(7.27128 -0.0149172 0)
(7.26926 -0.0169504 -1.74875e-19)
(7.26726 -0.0193893 -2.03241e-21)
(7.26525 -0.0222755 0)
(7.26323 -0.0256524 1.0875e-19)
(7.26117 -0.0295652 -1.15297e-19)
(7.25907 -0.0340607 -6.10577e-20)
(7.25688 -0.0391878 0)
(7.2546 -0.0449972 0)
(7.2522 -0.0515416 0)
(7.24964 -0.0588755 3.98654e-20)
(7.24689 -0.067056 4.28443e-20)
(7.24392 -0.076143 4.61057e-20)
(7.2407 -0.0861986 4.96901e-20)
(7.23719 -0.0972887 -5.36414e-20)
(7.23334 -0.109484 3.2431e-20)
(7.22912 -0.122857 -1.01769e-21)
(7.22447 -0.137487 7.18179e-20)
(7.21935 -0.153461 -4.11974e-20)
(7.21372 -0.170868 3.76e-20)
(7.20751 -0.18981 -4.58104e-20)
(7.20067 -0.210395 -2.41859e-20)
(7.19314 -0.232742 -8.75078e-20)
(7.18486 -0.256982 2.93233e-20)
(7.17576 -0.283263 -3.5288e-20)
(7.16577 -0.311744 1.5279e-21)
(7.15481 -0.342609 1.27779e-19)
(7.14281 -0.376061 -5.00787e-20)
(7.12968 -0.412331 1.04472e-19)
(7.11534 -0.451681 -8.10113e-20)
(7.09967 -0.494414 3.73968e-20)
(7.08259 -0.54087 -3.71009e-20)
(7.06399 -0.59145 3.9249e-20)
(7.04376 -0.646626 -6.49496e-20)
(7.02178 -0.706919 5.23024e-20)
(6.99794 -0.773025 -2.47293e-20)
(6.97212 -0.845561 0)
(6.94424 -0.92581 7.44051e-20)
(6.9142 -1.01398 8.27455e-20)
(6.88193 -1.11352 9.15764e-20)
(6.84766 -1.22126 2.37878e-20)
(6.81071 -1.35004 -9.80539e-20)
(6.77403 -1.47916 -3.29989e-20)
(6.73063 -1.66056 -6.33101e-20)
(6.70214 -1.80091 8.29928e-20)
(6.63881 -2.09394 3.02553e-20)
(6.66761 -2.20288 -5.68007e-20)
(6.51624 -2.7336 -8.29284e-21)
(6.833 -2.76483 -2.34299e-20)
(6.28642 -3.81068 -1.5912e-20)
(7.34837 -0.020451 -1.38406e-19)
(7.34988 -0.0169278 -1.33355e-19)
(7.34963 -0.0150996 1.60022e-19)
(7.34854 -0.0159416 1.0422e-20)
(7.34746 -0.0158816 -2.10513e-19)
(7.34629 -0.0156886 2.21636e-19)
(7.34479 -0.0156126 2.61296e-19)
(7.34322 -0.0155051 -1.40394e-19)
(7.3415 -0.0153389 0)
(7.33969 -0.0151473 1.80895e-19)
(7.33779 -0.014919 2.0143e-19)
(7.33581 -0.014656 -1.11839e-19)
(7.33376 -0.0143572 -1.24008e-19)
(7.33165 -0.0140263 -1.41342e-19)
(7.32948 -0.0136635 1.47589e-19)
(7.32727 -0.0132715 0)
(7.325 -0.0128523 1.87835e-19)
(7.3227 -0.012409 2.0611e-19)
(7.32036 -0.0119447 0)
(7.31799 -0.0114633 -1.2013e-19)
(7.3156 -0.0109691 0)
(7.31317 -0.0104672 -1.45654e-19)
(7.31073 -0.00996372 0)
(7.30827 -0.00946533 3.52455e-19)
(7.3058 -0.00898001 -3.75103e-19)
(7.30332 -0.00851667 -4.12303e-19)
(7.30084 -0.00808567 -2.29136e-19)
(7.29836 -0.00769865 1.21505e-19)
(7.29589 -0.00736869 -1.34445e-19)
(7.29342 -0.00711052 0)
(7.29097 -0.00694066 0)
(7.28852 -0.00687722 -8.69677e-20)
(7.2861 -0.0069402 1.83245e-19)
(7.28369 -0.00715176 9.91384e-20)
(7.2813 -0.00753559 0)
(7.27892 -0.00811791 0)
(7.27656 -0.00892656 -1.28252e-19)
(7.2742 -0.00999164 1.35091e-19)
(7.27186 -0.011345 -7.4581e-20)
(7.26951 -0.0130206 3.19231e-19)
(7.26714 -0.0150545 1.7312e-19)
(7.26476 -0.0174845 -1.53871e-22)
(7.26233 -0.0203504 -1.00748e-19)
(7.25986 -0.0236935 3.41352e-21)
(7.25731 -0.0275573 1.13295e-19)
(7.25468 -0.0319871 -1.26833e-19)
(7.25193 -0.0370299 6.79411e-20)
(7.24904 -0.0427349 2.54901e-21)
(7.24599 -0.0491531 0)
(7.24274 -0.0563379 -8.7008e-20)
(7.23926 -0.0643452 -9.44158e-20)
(7.23552 -0.0732336 1.0259e-19)
(7.23149 -0.0830646 -5.67827e-20)
(7.22711 -0.0939031 -1.17549e-19)
(7.22236 -0.105818 1.52173e-21)
(7.21718 -0.118884 7.11305e-20)
(7.21153 -0.133179 -7.50378e-20)
(7.20536 -0.148788 -4.26836e-20)
(7.19861 -0.165803 1.37878e-19)
(7.19123 -0.184323 4.5922e-20)
(7.18316 -0.204458 5.44955e-20)
(7.17434 -0.226329 5.82682e-20)
(7.1647 -0.250066 -7.13649e-20)
(7.15416 -0.275819 0)
(7.14265 -0.303748 0)
(7.13009 -0.334041 -1.89277e-19)
(7.1164 -0.366904 -5.8557e-20)
(7.10146 -0.40257 0)
(7.0852 -0.441306 0)
(7.06749 -0.48342 -6.75436e-20)
(7.04823 -0.529262 0)
(7.02729 -0.579246 -1.41041e-19)
(7.00455 -0.633848 4.88702e-20)
(6.97986 -0.693611 5.01767e-21)
(6.9531 -0.759247 -1.60062e-19)
(6.92412 -0.831432 3.42208e-20)
(6.89278 -0.911402 -1.1646e-19)
(6.85898 -0.9996 -1.24374e-19)
(6.82257 -1.09914 -9.05609e-20)
(6.78377 -1.20778 1.14756e-19)
(6.74184 -1.33677 -1.25993e-19)
(6.6995 -1.46891 6.0079e-20)
(6.65046 -1.6503 6.29839e-20)
(6.61405 -1.79828 -1.67381e-19)
(6.54622 -2.09067 1.87193e-20)
(6.56141 -2.21454 2.75002e-20)
(6.41222 -2.74743 8.35132e-21)
(6.69464 -2.78588 8.58889e-20)
(6.20872 -3.86925 2.78288e-20)
(7.34948 -0.017102 -1.28369e-19)
(7.34992 -0.0151326 -1.37886e-19)
(7.34998 -0.0133921 -1.44846e-19)
(7.34875 -0.0141293 1.79773e-19)
(7.34764 -0.0142238 7.21446e-21)
(7.34641 -0.0140336 0)
(7.34496 -0.0139408 7.77027e-21)
(7.34337 -0.0138199 -1.36389e-19)
(7.34168 -0.0136379 1.51386e-19)
(7.33989 -0.0134183 0)
(7.33802 -0.0131632 1.98306e-19)
(7.33606 -0.0128699 -2.08804e-19)
(7.33404 -0.0125405 -2.434e-19)
(7.33195 -0.0121774 1.24504e-19)
(7.32981 -0.0117825 0)
(7.32762 -0.0113583 0)
(7.32538 -0.0109075 -1.75186e-19)
(7.3231 -0.0104335 -1.94735e-19)
(7.32078 -0.00993978 2.11901e-19)
(7.31842 -0.00943051 4.73844e-19)
(7.31603 -0.00891044 3.67076e-21)
(7.31361 -0.00838494 -2.81904e-19)
(7.31116 -0.00786021 -5.86053e-21)
(7.3087 -0.00734336 -3.67737e-21)
(7.30621 -0.00684243 1.40203e-21)
(7.3037 -0.00636656 2.01166e-19)
(7.30119 -0.00592596 0)
(7.29866 -0.00553229 1.21133e-19)
(7.29612 -0.0051985 -2.59358e-19)
(7.29357 -0.00493919 -1.45208e-19)
(7.29103 -0.00477025 -4.71741e-21)
(7.28847 -0.0047093 -2.40766e-21)
(7.28592 -0.00477584 -1.80236e-19)
(7.28336 -0.00499111 0)
(7.28079 -0.00537797 0)
(7.27822 -0.00596141 -1.16363e-19)
(7.27563 -0.00676818 -2.21023e-21)
(7.27303 -0.00782686 0)
(7.2704 -0.00916799 0)
(7.26774 -0.0108241 -1.55682e-19)
(7.26504 -0.0128293 -8.40267e-20)
(7.26228 -0.0152199 1.8575e-19)
(7.25945 -0.0180337 1.98509e-19)
(7.25654 -0.0213107 -1.02763e-19)
(7.25351 -0.0250923 2.35835e-19)
(7.25036 -0.0294222 -7.74385e-22)
(7.24706 -0.0343456 0)
(7.24359 -0.0399103 -7.21387e-20)
(7.23991 -0.0461657 1.63996e-19)
(7.23599 -0.0531638 1.73115e-19)
(7.23181 -0.0609589 -9.85029e-20)
(7.22732 -0.0696088 -9.99258e-20)
(7.22249 -0.0791737 1.08769e-19)
(7.21728 -0.0897177 0)
(7.21164 -0.101309 -1.38892e-19)
(7.20553 -0.114021 0)
(7.1989 -0.127931 0)
(7.19169 -0.143124 0)
(7.18386 -0.159692 -9.37133e-20)
(7.17533 -0.177734 5.52458e-20)
(7.16606 -0.197358 6.60366e-20)
(7.15596 -0.218686 0)
(7.14497 -0.241851 -8.07788e-21)
(7.13302 -0.267 5.64684e-21)
(7.12001 -0.294299 0)
(7.10586 -0.323931 4.40396e-20)
(7.09047 -0.356106 4.37771e-20)
(7.07374 -0.391064 -1.31712e-19)
(7.05556 -0.429072 0)
(7.03581 -0.470445 0)
(7.01436 -0.515541 0)
(6.99107 -0.564777 4.26424e-20)
(6.96579 -0.618642 5.38185e-20)
(6.93836 -0.677705 0)
(6.90862 -0.742677 -5.80277e-21)
(6.8764 -0.814287 2.40291e-19)
(6.8415 -0.893747 3.75396e-20)
(6.80382 -0.981701 9.76768e-20)
(6.76309 -1.08098 -1.96253e-19)
(6.71956 -1.19018 1.32516e-20)
(6.67232 -1.31911 1.61638e-20)
(6.62404 -1.45386 -3.70654e-20)
(6.56865 -1.63488 3.93794e-20)
(6.52408 -1.79026 1.74054e-19)
(6.4502 -2.08142 0)
(6.45182 -2.2204 1.12212e-19)
(6.30309 -2.75662 6.6527e-20)
(6.54843 -2.80277 -6.45159e-20)
(6.13418 -3.92822 -9.2318e-21)
(7.34983 -0.0142844 2.41341e-19)
(7.35002 -0.0133643 0)
(7.35015 -0.0117458 1.40754e-19)
(7.34897 -0.0123897 3.41656e-19)
(7.34779 -0.0125824 -1.77309e-19)
(7.34657 -0.0124192 -2.07776e-19)
(7.34513 -0.0123065 4.88222e-19)
(7.34355 -0.0121735 -5.31687e-19)
(7.34188 -0.0119732 0)
(7.34011 -0.0117274 1.72082e-19)
(7.33826 -0.011443 -1.81193e-19)
(7.33633 -0.0111186 0)
(7.33434 -0.0107563 0)
(7.33228 -0.010359 0)
(7.33016 -0.00992944 2.77261e-19)
(7.32799 -0.00947032 0)
(7.32578 -0.00898483 1.70299e-19)
(7.32351 -0.00847652 -1.90647e-19)
(7.3212 -0.00794928 -5.23068e-21)
(7.31886 -0.00740751 -2.23823e-19)
(7.31647 -0.00685624 -2.5467e-19)
(7.31406 -0.0063011 5.37449e-19)
(7.31161 -0.00574841 0)
(7.30913 -0.00520539 3.22821e-19)
(7.30662 -0.00468024 3.5446e-19)
(7.30408 -0.00418207 -4.356e-21)
(7.30153 -0.00372111 2.07726e-19)
(7.29895 -0.00330885 0)
(7.29634 -0.00295807 0)
(7.29372 -0.00268294 2.75998e-19)
(7.29108 -0.00249895 -1.43844e-19)
(7.28841 -0.00242337 -1.59325e-19)
(7.28573 -0.00247472 1.7596e-19)
(7.28302 -0.00267358 1.91299e-19)
(7.28028 -0.00304201 -2.10595e-19)
(7.27752 -0.00360385 3.36123e-19)
(7.27471 -0.00438462 1.11137e-21)
(7.27187 -0.00541175 0)
(7.26897 -0.00671427 -1.44569e-19)
(7.26601 -0.00832332 0)
(7.26297 -0.0102715 1.7042e-19)
(7.25985 -0.0125934 -3.66023e-19)
(7.25663 -0.0153252 -1.008e-19)
(7.25329 -0.0185053 6.77482e-23)
(7.24981 -0.0221732 -2.33886e-19)
(7.24616 -0.0263714 2.54343e-19)
(7.24233 -0.0311432 4.30989e-21)
(7.23828 -0.0365348 -1.48038e-19)
(7.23399 -0.0425942 9.05967e-20)
(7.22943 -0.0493718 -8.78181e-20)
(7.22456 -0.056921 9.48651e-20)
(7.21935 -0.0652978 7.81612e-22)
(7.21374 -0.0745616 -4.37206e-21)
(7.20772 -0.0847749 1.25411e-19)
(7.20122 -0.0960059 1.35666e-19)
(7.1942 -0.108325 -7.87809e-20)
(7.18661 -0.121812 -3.64577e-21)
(7.17839 -0.136548 -4.15137e-21)
(7.16949 -0.152626 2.08312e-19)
(7.15985 -0.170144 -5.86293e-20)
(7.14938 -0.189212 6.82462e-21)
(7.13803 -0.209949 2.14904e-19)
(7.12572 -0.232488 1.49853e-19)
(7.11236 -0.256977 -2.64495e-19)
(7.09787 -0.283581 -9.97304e-20)
(7.08214 -0.312489 1.05521e-19)
(7.06507 -0.34391 1.15597e-19)
(7.04655 -0.378082 -1.19793e-20)
(7.02646 -0.415281 0)
(7.00466 -0.455822 -8.75098e-20)
(6.981 -0.500067 1.41838e-19)
(6.95533 -0.548447 -5.2061e-20)
(6.92749 -0.601455 0)
(6.89727 -0.659673 -6.95578e-20)
(6.86449 -0.723829 7.38508e-20)
(6.82895 -0.794699 -1.62091e-19)
(6.7904 -0.873468 -2.00936e-19)
(6.7487 -0.96095 2.25661e-19)
(6.70349 -1.05975 2.40319e-19)
(6.65499 -1.1692 1.43683e-20)
(6.60218 -1.29787 1.4066e-19)
(6.54761 -1.43475 4.17114e-20)
(6.48534 -1.61529 -2.3426e-19)
(6.43226 -1.77745 -9.26666e-20)
(6.35108 -2.06726 0)
(6.33896 -2.22128 -1.02087e-19)
(6.18845 -2.76205 -8.76403e-20)
(6.39107 -2.81735 1.1681e-19)
(6.02744 -3.9798 0)
(7.35015 -0.0119298 0)
(7.35007 -0.0116767 0)
(7.35026 -0.0102045 0)
(7.34914 -0.0107444 -1.63004e-19)
(7.34794 -0.010994 -1.92138e-19)
(7.34671 -0.010855 2.02308e-19)
(7.3453 -0.0107224 -1.27276e-21)
(7.34374 -0.0105712 -2.59909e-19)
(7.34209 -0.0103505 -2.89533e-19)
(7.34035 -0.0100767 0)
(7.33853 -0.00976074 -3.57176e-19)
(7.33662 -0.00940279 0)
(7.33466 -0.00900517 2.19003e-19)
(7.33262 -0.00857121 0)
(7.33053 -0.0081041 -2.70408e-19)
(7.32839 -0.00760695 3.036e-19)
(7.32619 -0.0070833 4.9206e-21)
(7.32394 -0.00653686 0)
(7.32165 -0.00597181 1.96461e-19)
(7.31932 -0.00539281 -2.1938e-19)
(7.31694 -0.00480495 -5.93014e-21)
(7.31452 -0.00421406 -2.59912e-19)
(7.31206 -0.00362659 2.84875e-19)
(7.30957 -0.0030498 -6.2697e-19)
(7.30704 -0.00249196 -1.72244e-19)
(7.30448 -0.00196201 2.9029e-21)
(7.30188 -0.00147026 -2.01315e-19)
(7.29925 -0.00102785 0)
(7.29658 -0.000647348 2.48471e-19)
(7.29388 -0.000342366 -2.56472e-19)
(7.29114 -0.000128343 -1.40184e-19)
(7.28837 -2.14523e-05 3.15785e-19)
(7.28556 -4.0026e-05 -3.4664e-19)
(7.2827 -0.000203668 -1.92854e-19)
(7.2798 -0.000533432 -6.49761e-21)
(7.27684 -0.00105216 4.40088e-19)
(7.27382 -0.00178437 0)
(7.27074 -0.00275613 0)
(7.26758 -0.00399533 -3.31618e-21)
(7.26433 -0.00553152 -3.48621e-21)
(7.26097 -0.00739588 -1.66567e-19)
(7.2575 -0.00962144 -5.0295e-21)
(7.2539 -0.012243 -1.06488e-19)
(7.25015 -0.0152971 2.15907e-19)
(7.24622 -0.0188219 1.16127e-19)
(7.24209 -0.022858 0)
(7.23775 -0.0274474 0)
(7.23315 -0.0326347 1.55926e-19)
(7.22828 -0.0384662 -3.28183e-19)
(7.22309 -0.0449912 0)
(7.21755 -0.0522615 -3.07217e-19)
(7.21163 -0.0603315 -1.11381e-19)
(7.20529 -0.0692599 1.18361e-19)
(7.19847 -0.0791077 0)
(7.19113 -0.0899423 1.50136e-19)
(7.18323 -0.101833 -8.2397e-20)
(7.17471 -0.114858 1.7805e-19)
(7.16551 -0.129098 -2.98939e-19)
(7.15556 -0.144645 7.23772e-21)
(7.14482 -0.161597 0)
(7.13319 -0.180063 -1.29276e-19)
(7.12061 -0.20016 -1.43658e-19)
(7.10699 -0.222024 8.53617e-20)
(7.09225 -0.2458 -7.38479e-21)
(7.07629 -0.271655 1.00785e-19)
(7.05899 -0.299776 -2.38999e-19)
(7.04026 -0.330375 5.93911e-20)
(7.01996 -0.363694 1.33789e-19)
(6.99796 -0.400006 -7.9161e-20)
(6.97411 -0.43963 0)
(6.94825 -0.482938 2.13555e-19)
(6.92019 -0.530361 2.40296e-19)
(6.88975 -0.582404 0)
(6.85672 -0.639667 -7.5369e-20)
(6.82085 -0.70288 -6.76505e-21)
(6.78192 -0.77286 -2.83754e-19)
(6.73963 -0.850788 1.45578e-19)
(6.69377 -0.937615 1.39111e-19)
(6.64394 -1.03579 -5.33907e-19)
(6.59023 -1.14523 -6.86365e-20)
(6.53157 -1.27352 -4.22599e-20)
(6.47029 -1.41214 -1.95238e-19)
(6.40065 -1.59229 1.88046e-19)
(6.3384 -1.76063 -2.08419e-19)
(6.24883 -2.04957 2.89911e-20)
(6.22218 -2.21816 0)
(6.06739 -2.76393 0)
(6.23996 -2.83851 3.12167e-20)
(5.87103 -4.00732 -8.88604e-21)
(7.35041 -0.00994094 0)
(7.35011 -0.01012 0)
(7.35034 -0.00878528 0)
(7.3493 -0.00921107 1.33605e-20)
(7.34808 -0.00947733 -1.74474e-19)
(7.34687 -0.00935301 4.07076e-19)
(7.34548 -0.00919655 -4.48131e-19)
(7.34395 -0.0090204 7.67292e-19)
(7.34232 -0.00877449 8.61656e-21)
(7.34061 -0.00846964 0)
(7.33881 -0.00811896 3.49426e-19)
(7.33694 -0.00772451 1.97551e-19)
(7.33499 -0.00728859 -4.22319e-19)
(7.33299 -0.00681494 0)
(7.33092 -0.00630709 2.66165e-19)
(7.3288 -0.00576857 -2.80305e-19)
(7.32663 -0.00520304 5.38571e-21)
(7.3244 -0.00461445 -3.40236e-19)
(7.32212 -0.00400711 3.11491e-21)
(7.3198 -0.00338583 5.47674e-21)
(7.31742 -0.00275583 -6.41867e-21)
(7.31501 -0.00212304 5.02469e-19)
(7.31254 -0.00149392 -3.03004e-21)
(7.31004 -0.000875783 6.07741e-19)
(7.30749 -0.00027674 0)
(7.30489 0.000294318 0)
(7.30225 0.000827267 0)
(7.29957 0.00131121 0)
(7.29684 0.00173398 -4.79361e-19)
(7.29406 0.00208225 5.15288e-19)
(7.29123 0.00234123 5.71504e-19)
(7.28835 0.00249512 -1.49726e-19)
(7.28542 0.00252637 -3.40188e-19)
(7.28242 0.00241634 1.808e-19)
(7.27935 0.0021447 0)
(7.27621 0.00168964 -6.58725e-19)
(7.27299 0.00102773 -2.46785e-19)
(7.26967 0.000134113 -5.3674e-21)
(7.26625 -0.00101784 0)
(7.26272 -0.00245623 -2.25412e-21)
(7.25906 -0.00421097 0)
(7.25526 -0.00631362 -1.86398e-19)
(7.25129 -0.00879727 3.93988e-19)
(7.24714 -0.0116971 -2.15299e-19)
(7.24278 -0.0150498 -1.21356e-19)
(7.2382 -0.0188942 -4.73333e-21)
(7.23335 -0.0232707 1.3995e-19)
(7.22823 -0.0282227 0)
(7.22279 -0.0337947 -1.74076e-19)
(7.217 -0.0400344 0)
(7.21082 -0.0469926 4.11774e-19)
(7.20422 -0.0547221 -1.15798e-19)
(7.19715 -0.0632799 1.2223e-19)
(7.18957 -0.0727259 1.40733e-19)
(7.18142 -0.0831266 -2.96538e-19)
(7.17266 -0.0945499 -1.64183e-19)
(7.16324 -0.107072 0)
(7.15308 -0.120774 1.99739e-19)
(7.14212 -0.135746 -1.10747e-19)
(7.1303 -0.152085 0)
(7.11754 -0.169898 -1.4569e-19)
(7.10375 -0.189304 0)
(7.08886 -0.210436 0)
(7.07276 -0.233438 -1.01031e-19)
(7.05535 -0.258479 2.2003e-19)
(7.03652 -0.285744 1.25547e-19)
(7.01614 -0.315445 7.86145e-21)
(6.99408 -0.347823 -1.46571e-21)
(6.97018 -0.383156 0)
(6.9443 -0.421767 0)
(6.91623 -0.464023 -3.26417e-19)
(6.8858 -0.510366 -2.31175e-19)
(6.85276 -0.561307 -4.25928e-19)
(6.81689 -0.617456 -8.13495e-20)
(6.77791 -0.679552 2.57466e-19)
(6.73554 -0.748444 1.92848e-19)
(6.68945 -0.825312 5.84499e-20)
(6.63933 -0.911222 -3.07575e-19)
(6.58473 -1.0085 2.7617e-19)
(6.52562 -1.11756 0)
(6.46085 -1.24519 -1.90329e-19)
(6.39249 -1.385 2.98317e-19)
(6.31496 -1.56447 -1.10692e-19)
(6.24286 -1.73826 2.37731e-19)
(6.1438 -2.02595 0)
(6.10159 -2.20896 0)
(5.94007 -2.7571 1.63498e-20)
(6.0801 -2.84856 6.04074e-21)
(5.73727 -4.04492 -2.58643e-21)
(7.35068 -0.00825491 0)
(7.35017 -0.0086948 0)
(7.35041 -0.0074864 -2.7578e-19)
(7.34944 -0.00779386 6.40278e-19)
(7.34822 -0.00804384 -7.00898e-19)
(7.34702 -0.00792044 -3.96201e-19)
(7.34567 -0.00773465 -2.27802e-19)
(7.34417 -0.00752597 2.45917e-19)
(7.34257 -0.00724899 1.46169e-20)
(7.34088 -0.00690904 -6.08832e-19)
(7.33911 -0.00651996 -5.86996e-21)
(7.33727 -0.00608541 -3.70459e-19)
(7.33536 -0.00560785 -1.98066e-19)
(7.33338 -0.00509114 3.45534e-21)
(7.33134 -0.00453918 8.00798e-21)
(7.32924 -0.00395561 -5.55356e-19)
(7.32709 -0.00334428 6.02445e-19)
(7.32488 -0.00270932 1.02313e-20)
(7.32262 -0.00205511 -1.7327e-19)
(7.3203 -0.00138648 -6.03405e-19)
(7.31794 -0.000708766 -2.24932e-19)
(7.31552 -2.78906e-05 -2.43805e-19)
(7.31305 0.000649727 -2.70795e-19)
(7.31053 0.0013168 4.58195e-21)
(7.30796 0.00196543 -9.69558e-19)
(7.30534 0.00258677 5.28687e-19)
(7.30266 0.00317107 -3.83628e-19)
(7.29993 0.00370768 -5.02616e-21)
(7.29713 0.00418475 -7.24721e-21)
(7.29428 0.00458944 5.0821e-19)
(7.29137 0.0049075 -5.50629e-19)
(7.28838 0.0051237 -3.03464e-19)
(7.28532 0.00522127 6.65551e-19)
(7.28219 0.00518235 -1.77827e-19)
(7.27896 0.00498738 -3.99129e-19)
(7.27564 0.00461569 4.27305e-19)
(7.27222 0.00404489 2.34755e-19)
(7.26869 0.00325127 2.56119e-19)
(7.26503 0.00220947 -2.8257e-19)
(7.26122 0.000892668 1.52498e-19)
(7.25727 -0.000727713 0)
(7.25314 -0.00268174 1.99134e-21)
(7.24882 -0.005001 -1.97243e-19)
(7.24429 -0.00771925 2.2212e-19)
(7.23952 -0.0108716 1.22775e-19)
(7.23449 -0.0144953 -2.64109e-19)
(7.22918 -0.0186293 1.42005e-19)
(7.22354 -0.0233152 1.62279e-19)
(7.21756 -0.0285962 -1.78166e-19)
(7.21119 -0.0345186 1.88291e-19)
(7.2044 -0.0411312 -4.22836e-19)
(7.19714 -0.0484858 1.19364e-19)
(7.18937 -0.0566378 -1.26028e-19)
(7.18105 -0.0656457 -1.45781e-19)
(7.17213 -0.0755743 4.68994e-19)
(7.16254 -0.0864899 -3.49147e-19)
(7.15223 -0.098468 -9.93026e-20)
(7.14114 -0.111588 -1.15519e-19)
(7.1292 -0.125939 1.22808e-19)
(7.11634 -0.141615 -5.40144e-19)
(7.10247 -0.158724 2.88812e-19)
(7.08751 -0.177382 -1.70479e-19)
(7.07137 -0.19772 2.7572e-19)
(7.05394 -0.219885 3.14302e-19)
(7.03512 -0.24404 0)
(7.01478 -0.270371 0)
(6.99278 -0.299089 1.50739e-19)
(6.96899 -0.330436 -1.5988e-19)
(6.94323 -0.36469 1.90889e-19)
(6.91533 -0.402169 0)
(6.88508 -0.443249 -1.57486e-20)
(6.85228 -0.48837 -2.73968e-19)
(6.81666 -0.538047 -9.78894e-20)
(6.77795 -0.592899 8.22197e-20)
(6.73585 -0.653674 0)
(6.69002 -0.721245 3.36066e-19)
(6.64007 -0.796788 -1.1914e-19)
(6.58563 -0.881466 7.15092e-20)
(6.52615 -0.977507 -1.57169e-19)
(6.4615 -1.08574 8.63425e-20)
(6.39041 -1.21228 1.91425e-19)
(6.31465 -1.35262 0)
(6.2288 -1.5309 0)
(6.14623 -1.70925 2.93191e-19)
(6.03667 -1.99485 -3.11458e-19)
(5.97791 -2.192 0)
(5.80674 -2.7395 0)
(5.91587 -2.85768 -1.57454e-19)
(5.60971 -4.08619 -7.1707e-20)
(7.35097 -0.00681926 2.31922e-19)
(7.35026 -0.00739817 -2.83374e-21)
(7.35049 -0.00630258 -2.81045e-19)
(7.34959 -0.00649193 0)
(7.34838 -0.00669873 -3.60064e-19)
(7.34719 -0.00656165 7.69027e-19)
(7.34587 -0.00634015 -4.2983e-19)
(7.3444 -0.00609153 8.11686e-21)
(7.34283 -0.00577703 -2.59932e-19)
(7.34117 -0.00539724 0)
(7.33944 -0.00496561 3.29409e-19)
(7.33762 -0.00448703 3.64574e-19)
(7.33574 -0.00396418 -1.98952e-19)
(7.33379 -0.00340084 2.05272e-19)
(7.33178 -0.00280109 4.84174e-19)
(7.32971 -0.00216868 -5.41999e-19)
(7.32758 -0.00150752 2.85312e-19)
(7.32539 -0.000821866 3.28732e-19)
(7.32314 -0.000116065 0)
(7.32084 0.000604961 7.89603e-19)
(7.31848 0.001336 -4.37256e-19)
(7.31607 0.0020711 7.10404e-19)
(7.3136 0.00280406 0)
(7.31107 0.00352759 -2.93412e-19)
(7.30848 0.00423399 3.04161e-19)
(7.30582 0.00491473 3.38964e-19)
(7.30311 0.00556022 1.90171e-19)
(7.30033 0.0061603 -2.08216e-19)
(7.29748 0.00670327 2.27919e-19)
(7.29455 0.00717701 0)
(7.29155 0.00756787 2.71573e-19)
(7.28847 0.00786105 -6.44502e-21)
(7.28529 0.00804048 1.5352e-19)
(7.28202 0.00808935 -6.69822e-21)
(7.27865 0.00798899 5.85598e-19)
(7.27516 0.00771943 8.00756e-21)
(7.27155 0.00725955 8.77862e-21)
(7.2678 0.00658675 -5.07783e-19)
(7.26391 0.00567683 2.78489e-19)
(7.25985 0.00450429 -1.56367e-19)
(7.25561 0.00304186 -6.46642e-21)
(7.25117 0.00126104 3.6312e-19)
(7.24652 -0.000868675 -2.05998e-19)
(7.24162 -0.00337915 -2.25354e-19)
(7.23646 -0.00630429 -2.59664e-21)
(7.23101 -0.00967962 6.68733e-19)
(7.22524 -0.0135427 -2.94131e-19)
(7.21912 -0.0179332 1.58422e-19)
(7.21262 -0.0228933 0)
(7.20569 -0.0284674 -1.99568e-19)
(7.1983 -0.0347025 4.33331e-19)
(7.19042 -0.0416492 1.22741e-19)
(7.18198 -0.049361 -2.63875e-19)
(7.17295 -0.0578951 -1.43492e-19)
(7.16327 -0.0673143 0)
(7.15288 -0.0776842 1.7654e-19)
(7.14173 -0.0890779 9.4189e-22)
(7.12974 -0.101574 -9.44522e-23)
(7.11684 -0.115257 0)
(7.10297 -0.130224 5.55097e-19)
(7.08802 -0.146577 0)
(7.07192 -0.164433 1.77863e-19)
(7.05457 -0.18392 -1.88724e-19)
(7.03584 -0.205184 -2.11377e-19)
(7.01563 -0.228385 -1.24909e-19)
(6.99381 -0.253707 -1.3331e-19)
(6.97023 -0.281362 0)
(6.94472 -0.311588 0)
(6.91713 -0.34466 -1.89476e-19)
(6.88724 -0.380899 -1.13741e-19)
(6.85483 -0.420681 1.05731e-19)
(6.81967 -0.46444 2.72341e-19)
(6.78148 -0.512702 4.7219e-19)
(6.73994 -0.566084 -1.74892e-19)
(6.69472 -0.625341 2.10521e-19)
(6.64541 -0.691363 1.5248e-20)
(6.59158 -0.765324 2.71128e-19)
(6.53276 -0.848463 0)
(6.46833 -0.942931 0)
(6.398 -1.0499 -3.96913e-19)
(6.32042 -1.17495 1.11481e-19)
(6.23698 -1.31517 7.25931e-20)
(6.14245 -1.4918 6.70239e-20)
(6.04892 -1.67378 -2.17572e-19)
(5.92802 -1.95666 -1.14871e-19)
(5.85189 -2.1672 3.4697e-19)
(5.66866 -2.71256 -2.94905e-19)
(5.74391 -2.86302 -2.34643e-20)
(5.44084 -4.11092 -2.87103e-20)
(7.35127 -0.0055947 1.73417e-19)
(7.3504 -0.00622263 0)
(7.35059 -0.00522477 2.70695e-19)
(7.34974 -0.00529948 0)
(7.34855 -0.00544295 3.53357e-19)
(7.34738 -0.00527823 -3.72087e-19)
(7.34609 -0.00501457 2.07222e-19)
(7.34465 -0.00471908 4.72007e-19)
(7.34311 -0.00436056 -5.1995e-19)
(7.34149 -0.00393595 -1.43083e-20)
(7.33978 -0.00345746 3.10685e-19)
(7.338 -0.00293084 0)
(7.33615 -0.00235884 3.91765e-19)
(7.33424 -0.00174511 -4.32618e-19)
(7.33225 -0.00109378 -4.77023e-19)
(7.33021 -0.000408689 2.51303e-19)
(7.3281 0.000306353 -8.55591e-21)
(7.32593 0.00104707 0)
(7.32371 0.00180915 -3.45798e-19)
(7.32142 0.00258773 -7.67429e-19)
(7.31907 0.00337759 2.12656e-19)
(7.31666 0.00417303 -4.63904e-19)
(7.31418 0.00496791 -2.53009e-19)
(7.31164 0.00575518 0)
(7.30904 0.00652745 3.0536e-19)
(7.30636 0.00727622 3.35307e-19)
(7.30361 0.00799247 0)
(7.30078 0.00866618 0)
(7.29788 0.00928642 0)
(7.29489 0.00984129 6.02463e-21)
(7.29181 0.0103179 -2.5769e-19)
(7.28863 0.0107019 -5.8166e-19)
(7.28534 0.0109783 -3.2179e-19)
(7.28195 0.0111307 3.52031e-19)
(7.27843 0.0111416 -1.93105e-19)
(7.27478 0.010992 -2.11864e-19)
(7.27099 0.0106617 2.36918e-19)
(7.26704 0.0101292 8.53325e-21)
(7.26292 0.00937163 -2.73949e-19)
(7.25862 0.00836458 -4.64257e-19)
(7.25411 0.00708223 1.64976e-19)
(7.24938 0.00549733 0)
(7.24441 0.00358083 -2.07511e-19)
(7.23916 0.00130242 2.14818e-19)
(7.23363 -0.00137048 -2.43106e-19)
(7.22777 -0.00447159 -2.6745e-19)
(7.22157 -0.00803725 -3.01729e-19)
(7.21498 -0.0121054 0)
(7.20798 -0.0167167 -1.84114e-19)
(7.20052 -0.0219137 1.97607e-19)
(7.19257 -0.0277423 7.12604e-21)
(7.18408 -0.034251 0)
(7.175 -0.0414918 1.27745e-19)
(7.16529 -0.0495201 3.0311e-19)
(7.15488 -0.0583975 -3.36779e-19)
(7.14372 -0.0681869 1.8248e-19)
(7.13175 -0.0789597 4.17658e-19)
(7.11889 -0.0907939 -4.63196e-19)
(7.10507 -0.103772 0)
(7.09022 -0.117988 -2.82496e-19)
(7.07423 -0.133543 -3.30896e-19)
(7.05702 -0.15055 -1.76688e-19)
(7.03848 -0.169137 -2.09234e-19)
(7.01849 -0.189446 1.04281e-19)
(6.99694 -0.211637 3.73791e-19)
(6.97366 -0.235891 -1.48468e-19)
(6.94853 -0.262416 4.89803e-19)
(6.92135 -0.291447 -1.88484e-19)
(6.89194 -0.323261 3.06553e-19)
(6.86009 -0.358176 1.25837e-19)
(6.82556 -0.396563 2.55657e-19)
(6.78807 -0.438859 0)
(6.74732 -0.485587 1.74324e-19)
(6.70296 -0.537364 -8.68787e-20)
(6.65461 -0.594954 -4.283e-19)
(6.60182 -0.659256 7.06441e-21)
(6.54407 -0.731447 -2.80573e-19)
(6.48083 -0.812821 7.25153e-20)
(6.41137 -0.90548 1.81921e-19)
(6.33521 -1.01087 7.25607e-19)
(6.25095 -1.13414 -1.20932e-19)
(6.15953 -1.27374 -6.79013e-19)
(6.0559 -1.4485 -3.11047e-19)
(5.95068 -1.63328 3.52425e-19)
(5.81756 -1.91351 7.34452e-19)
(5.72256 -2.13619 -3.96136e-19)
(5.52545 -2.68034 3.94008e-19)
(5.56617 -2.85679 -2.70666e-20)
(5.23594 -4.1167 2.31328e-19)
(7.35158 -0.00455033 3.53414e-19)
(7.35057 -0.00516015 2.68239e-19)
(7.35071 -0.00424391 2.71293e-19)
(7.34991 -0.0042094 0)
(7.34874 -0.00427487 0)
(7.34758 -0.00406993 0)
(7.34632 -0.00375787 4.24103e-19)
(7.34492 -0.00340945 -2.16354e-19)
(7.34341 -0.00300075 2.51037e-19)
(7.34182 -0.00252637 -2.87195e-19)
(7.34015 -0.00199675 3.02454e-19)
(7.33841 -0.00141799 3.50631e-19)
(7.33659 -0.000792979 -3.6927e-19)
(7.33471 -0.000125172 0)
(7.33276 0.00058148 2.24261e-19)
(7.33074 0.00132317 -2.96515e-21)
(7.32866 0.00209614 -2.76851e-19)
(7.32652 0.00289623 -3.0509e-19)
(7.32431 0.00371915 3.4232e-19)
(7.32204 0.00456028 6.70604e-21)
(7.3197 0.00541445 2.10231e-19)
(7.31729 0.00627619 6.43532e-21)
(7.31482 0.00713939 2.5052e-19)
(7.31227 0.00799753 -2.71148e-19)
(7.30965 0.00884326 -6.09373e-19)
(7.30695 0.00966854 3.19108e-19)
(7.30417 0.0104647 3.70392e-19)
(7.30131 0.0112221 -5.82639e-19)
(7.29835 0.0119302 -2.14287e-19)
(7.2953 0.0125778 2.40873e-19)
(7.29214 0.0131524 -2.62412e-19)
(7.28887 0.0136406 7.14102e-21)
(7.28549 0.0140282 -3.11344e-19)
(7.28197 0.0142994 -6.96842e-19)
(7.27832 0.0144376 1.91358e-19)
(7.27452 0.0144249 -4.7429e-21)
(7.27056 0.0142419 -9.53024e-21)
(7.26642 0.0138685 7.55833e-19)
(7.26209 0.0132827 2.85015e-19)
(7.25756 0.0124616 1.61419e-19)
(7.25279 0.0113805 -1.65297e-19)
(7.24779 0.0100136 0)
(7.24251 0.00833325 2.09217e-19)
(7.23694 0.00631043 2.74724e-21)
(7.23105 0.00391433 2.5063e-19)
(7.22481 0.00111248 2.80939e-19)
(7.21819 -0.00212977 -3.03041e-19)
(7.21117 -0.00584894 0)
(7.20369 -0.0100836 -7.13505e-21)
(7.19573 -0.0148752 -9.88631e-21)
(7.18723 -0.0202675 -2.35246e-19)
(7.17816 -0.0263077 5.05775e-19)
(7.16847 -0.0330455 1.08989e-20)
(7.15811 -0.0405354 -3.16787e-19)