# Force coefficients
# liftDir     : (0.000000e+00 1.000000e+00 0.000000e+00)
# dragDir     : (1.000000e+00 0.000000e+00 0.000000e+00)
# pitchAxis   : (0.000000e+00 0.000000e+00 1.000000e+00)
# magUInf     : 3.200000e+00
# lRef        : 1.000000e+00
# Aref        : 1.750000e+00
# CofR        : (0.000000e+00 0.000000e+00 0.000000e+00)
# Time        	Cm            	Cd            	Cl            	Cl(f)         	Cl(r)         
0             	-6.225812e-05	6.950396e-03	6.560602e-06	-5.897782e-05	6.553842e-05
1             	4.209217e-01	1.340228e+00	-5.395635e-02	3.939435e-01	-4.478998e-01
2             	2.538169e-01	8.564193e-01	-4.679343e-02	2.304202e-01	-2.772136e-01
3             	-1.107922e-02	-2.617014e-01	1.083081e-01	4.307483e-02	6.523327e-02
4             	-1.085759e-01	-7.804380e-01	2.302550e-01	6.551588e-03	2.237035e-01
5             	-1.906850e-02	-4.204928e-01	2.047578e-01	8.331038e-02	1.214474e-01
6             	9.686702e-02	2.055519e-01	7.521008e-02	1.344721e-01	-5.926199e-02
7             	1.490797e-01	4.467152e-01	1.157110e-02	1.548652e-01	-1.432941e-01
8             	1.188062e-01	2.225044e-01	4.489489e-02	1.412536e-01	-9.635873e-02
9             	6.235852e-02	-1.129933e-01	1.192940e-01	1.220055e-01	-2.711509e-03
10            	3.302535e-02	-2.234503e-01	1.523359e-01	1.091933e-01	4.314260e-02
11            	3.850545e-02	-9.233750e-02	1.209360e-01	9.897345e-02	2.196256e-02
12            	6.861724e-02	8.346600e-02	8.335149e-02	1.102930e-01	-2.694149e-02
13            	9.242845e-02	1.321018e-01	8.005054e-02	1.324537e-01	-5.240318e-02
14            	9.323934e-02	5.645729e-02	1.036561e-01	1.450674e-01	-4.141128e-02
15            	7.633372e-02	-3.324507e-02	1.234362e-01	1.380518e-01	-1.461560e-02
16            	5.614881e-02	-5.403982e-02	1.129476e-01	1.126226e-01	3.250069e-04
17            	5.165512e-02	-1.125169e-02	9.296822e-02	9.813923e-02	-5.171009e-03
18            	6.400346e-02	3.632605e-02	8.796050e-02	1.079837e-01	-2.002320e-02
19            	7.862875e-02	4.514863e-02	1.003593e-01	1.288084e-01	-2.844908e-02
20            	8.168374e-02	2.029575e-02	1.141279e-01	1.387477e-01	-2.461980e-02
21            	7.224446e-02	-4.931516e-03	1.146106e-01	1.295498e-01	-1.493915e-02
22            	6.053254e-02	-8.320467e-03	1.021440e-01	1.116046e-01	-9.460521e-03
23            	5.802496e-02	6.076570e-03	9.306937e-02	1.045596e-01	-1.149028e-02
24            	6.501708e-02	1.986451e-02	9.657609e-02	1.133051e-01	-1.672903e-02
25            	7.246339e-02	2.110415e-02	1.065866e-01	1.257567e-01	-1.917010e-02
26            	7.294398e-02	1.254789e-02	1.118173e-01	1.288526e-01	-1.703531e-02
27            	6.765261e-02	4.895784e-03	1.088149e-01	1.220601e-01	-1.324514e-02
28            	6.272316e-02	4.613331e-03	1.023060e-01	1.138762e-01	-1.157015e-02
29            	6.297262e-02	9.739222e-03	1.006032e-01	1.132742e-01	-1.267102e-02
30            	6.676716e-02	1.404683e-02	1.048696e-01	1.192020e-01	-1.433237e-02
31            	6.917739e-02	1.392160e-02	1.096847e-01	1.240197e-01	-1.433505e-02
32            	6.738716e-02	1.066046e-02	1.096076e-01	1.221910e-01	-1.258337e-02
33            	6.354178e-02	8.070708e-03	1.057048e-01	1.163942e-01	-1.068936e-02
34            	6.126906e-02	8.296304e-03	1.024237e-01	1.124809e-01	-1.005722e-02
35            	6.205162e-02	1.027173e-02	1.030003e-01	1.135518e-01	-1.055146e-02
36            	6.398916e-02	1.171478e-02	1.060306e-01	1.170045e-01	-1.097386e-02
37            	6.439326e-02	1.143098e-02	1.078483e-01	1.183174e-01	-1.046912e-02
38            	6.252797e-02	1.008128e-02	1.065418e-01	1.157989e-01	-9.257085e-03
39            	6.017403e-02	9.135755e-03	1.039024e-01	1.121252e-01	-8.222818e-03
40            	5.921596e-02	9.255934e-03	1.026313e-01	1.105316e-01	-7.900319e-03
41            	6.003624e-02	1.001412e-02	1.038641e-01	1.119683e-01	-8.104213e-03
42            	6.139338e-02	1.052424e-02	1.062542e-01	1.145205e-01	-8.266270e-03
43            	6.198688e-02	1.038830e-02	1.078463e-01	1.159100e-01	-8.063748e-03
44            	6.176027e-02	9.910797e-03	1.081649e-01	1.158427e-01	-7.677816e-03
45            	6.154340e-02	9.535344e-03	1.081863e-01	1.156366e-01	-7.450225e-03
46            	6.231925e-02	9.604599e-03	1.093891e-01	1.170138e-01	-7.624713e-03
47            	6.407747e-02	9.949811e-03	1.120415e-01	1.200982e-01	-8.056730e-03
48            	6.610081e-02	1.022411e-02	1.153381e-01	1.237698e-01	-8.431785e-03
49            	6.754064e-02	1.023221e-02	1.179353e-01	1.265083e-01	-8.572989e-03
50            	6.827522e-02	1.006935e-02	1.194280e-01	1.279892e-01	-8.561211e-03
51            	6.876420e-02	9.946958e-03	1.203552e-01	1.289418e-01	-8.586603e-03
52            	6.952845e-02	9.946090e-03	1.216004e-01	1.303286e-01	-8.728265e-03
53            	7.085513e-02	1.009230e-02	1.237912e-01	1.327507e-01	-8.959520e-03
54            	7.213678e-02	1.022641e-02	1.260920e-01	1.351828e-01	-9.090792e-03
55            	7.286907e-02	1.025817e-02	1.276245e-01	1.366813e-01	-9.056810e-03
56            	7.346641e-02	1.021491e-02	1.290949e-01	1.380139e-01	-8.918964e-03
57            	7.382700e-02	1.014878e-02	1.300673e-01	1.388607e-01	-8.793339e-03
58            	7.416808e-02	1.012132e-02	1.308177e-01	1.395769e-01	-8.759246e-03
59            	7.460957e-02	1.013844e-02	1.316261e-01	1.404226e-01	-8.796502e-03
60            	7.538670e-02	1.019696e-02	1.330576e-01	1.419155e-01	-8.857904e-03
61            	7.616182e-02	1.023930e-02	1.346293e-01	1.434765e-01	-8.847160e-03
62            	7.667058e-02	1.024053e-02	1.358211e-01	1.445811e-01	-8.760037e-03
63            	7.706943e-02	1.023175e-02	1.368662e-01	1.455025e-01	-8.636326e-03
64            	7.743635e-02	1.022291e-02	1.378193e-01	1.463460e-01	-8.526694e-03
65            	7.794806e-02	1.021734e-02	1.389936e-01	1.474449e-01	-8.451249e-03
66            	7.831769e-02	1.022379e-02	1.398158e-01	1.482256e-01	-8.409816e-03
67            	7.873767e-02	1.023612e-02	1.407194e-01	1.490974e-01	-8.377961e-03
68            	7.920270e-02	1.025087e-02	1.417376e-01	1.500715e-01	-8.333901e-03
69            	7.965745e-02	1.026346e-02	1.427862e-01	1.510506e-01	-8.264328e-03
70            	7.997004e-02	1.026648e-02	1.435738e-01	1.517569e-01	-8.183135e-03
71            	8.037545e-02	1.026797e-02	1.445840e-01	1.526674e-01	-8.083453e-03
72            	8.066696e-02	1.026934e-02	1.453448e-01	1.533394e-01	-7.994562e-03
73            	8.119051e-02	1.027167e-02	1.466014e-01	1.544912e-01	-7.889793e-03
74            	8.141411e-02	1.027123e-02	1.471912e-01	1.550097e-01	-7.818492e-03
75            	8.166793e-02	1.026893e-02	1.478460e-01	1.555910e-01	-7.744909e-03
76            	8.198871e-02	1.026649e-02	1.486399e-01	1.563087e-01	-7.668776e-03
77            	8.255610e-02	1.028091e-02	1.499403e-01	1.575263e-01	-7.585937e-03
78            	8.277839e-02	1.027664e-02	1.505576e-01	1.580572e-01	-7.499609e-03
79            	8.290511e-02	1.027272e-02	1.509781e-01	1.583942e-01	-7.416055e-03
80            	8.306315e-02	1.026834e-02	1.515242e-01	1.588253e-01	-7.301044e-03
81            	8.326491e-02	1.026391e-02	1.521791e-01	1.593544e-01	-7.175368e-03
82            	8.365816e-02	1.025285e-02	1.532536e-01	1.602850e-01	-7.031355e-03
83            	8.378292e-02	1.024798e-02	1.536683e-01	1.606171e-01	-6.948774e-03
84            	8.392661e-02	1.023610e-02	1.541325e-01	1.609929e-01	-6.860363e-03
85            	8.409906e-02	1.021845e-02	1.546898e-01	1.614440e-01	-6.754160e-03
86            	8.427476e-02	1.020159e-02	1.553053e-01	1.619274e-01	-6.622104e-03
87            	8.440720e-02	1.019348e-02	1.558868e-01	1.623506e-01	-6.463802e-03
88            	8.447669e-02	1.019548e-02	1.563676e-01	1.626605e-01	-6.292889e-03
89            	8.450684e-02	1.019972e-02	1.567548e-01	1.628842e-01	-6.129441e-03
90            	8.453638e-02	1.019516e-02	1.571019e-01	1.630873e-01	-5.985454e-03
91            	8.458986e-02	1.017503e-02	1.574577e-01	1.633187e-01	-5.861006e-03
92            	8.463894e-02	1.014735e-02	1.577687e-01	1.635233e-01	-5.754594e-03
93            	8.470217e-02	1.010922e-02	1.581400e-01	1.637722e-01	-5.632163e-03
94            	8.477893e-02	1.006385e-02	1.586548e-01	1.641063e-01	-5.451552e-03
95            	8.478230e-02	1.004713e-02	1.589965e-01	1.642805e-01	-5.284073e-03
96            	8.474354e-02	1.005109e-02	1.592900e-01	1.643885e-01	-5.098554e-03
97            	8.470156e-02	1.006506e-02	1.595762e-01	1.644897e-01	-4.913451e-03
98            	8.469332e-02	1.007276e-02	1.598913e-01	1.646390e-01	-4.747655e-03
99            	8.472709e-02	1.006236e-02	1.602420e-01	1.648481e-01	-4.606107e-03
100           	8.477537e-02	1.003314e-02	1.605879e-01	1.650693e-01	-4.481404e-03
101           	8.478498e-02	1.000233e-02	1.608247e-01	1.651973e-01	-4.372649e-03
102           	8.479194e-02	9.963873e-03	1.610797e-01	1.653318e-01	-4.252075e-03
103           	8.478679e-02	9.928412e-03	1.613564e-01	1.654650e-01	-4.108577e-03
104           	8.475635e-02	9.897254e-03	1.617877e-01	1.656502e-01	-3.862510e-03
105           	8.476247e-02	9.896779e-03	1.620529e-01	1.657889e-01	-3.736024e-03
106           	8.478946e-02	9.904978e-03	1.623449e-01	1.659619e-01	-3.617036e-03
107           	8.484353e-02	9.909684e-03	1.626972e-01	1.661921e-01	-3.494947e-03
108           	8.491808e-02	9.904247e-03	1.631015e-01	1.664688e-01	-3.367333e-03
109           	8.498316e-02	9.890159e-03	1.634910e-01	1.667287e-01	-3.237663e-03
110           	8.501273e-02	9.872521e-03	1.638112e-01	1.669183e-01	-3.107135e-03
111           	8.500522e-02	9.853527e-03	1.640588e-01	1.670346e-01	-2.975829e-03
112           	8.498495e-02	9.832334e-03	1.642698e-01	1.671198e-01	-2.850047e-03
113           	8.499227e-02	9.808403e-03	1.645046e-01	1.672446e-01	-2.739974e-03
114           	8.505683e-02	9.782894e-03	1.648249e-01	1.674693e-01	-2.644402e-03
115           	8.526048e-02	9.756300e-03	1.654833e-01	1.680021e-01	-2.518818e-03
116           	8.536613e-02	9.749235e-03	1.658500e-01	1.682911e-01	-2.441138e-03
117           	8.543388e-02	9.755342e-03	1.661717e-01	1.685197e-01	-2.348053e-03
118           	8.544908e-02	9.769212e-03	1.664357e-01	1.686669e-01	-2.231237e-03
119           	8.542825e-02	9.781367e-03	1.666619e-01	1.687592e-01	-2.097323e-03
120           	8.541617e-02	9.779802e-03	1.668911e-01	1.688617e-01	-1.970609e-03
121           	8.546464e-02	9.757746e-03	1.671756e-01	1.690524e-01	-1.876837e-03
122           	8.559752e-02	9.718267e-03	1.675639e-01	1.693795e-01	-1.815557e-03
123           	8.579491e-02	9.674468e-03	1.680577e-01	1.698238e-01	-1.766057e-03
124           	8.598521e-02	9.646557e-03	1.685689e-01	1.702696e-01	-1.700764e-03
125           	8.609855e-02	9.645562e-03	1.689913e-01	1.705942e-01	-1.602893e-03
126           	8.612370e-02	9.665558e-03	1.692931e-01	1.707703e-01	-1.477149e-03
127           	8.609790e-02	9.690999e-03	1.695072e-01	1.708515e-01	-1.344304e-03
128           	8.608018e-02	9.704169e-03	1.696955e-01	1.709279e-01	-1.232438e-03
129           	8.612012e-02	9.694535e-03	1.699236e-01	1.710819e-01	-1.158335e-03
130           	8.623406e-02	9.663626e-03	1.702351e-01	1.713516e-01	-1.116523e-03
131           	8.640328e-02	9.622885e-03	1.706354e-01	1.717210e-01	-1.085603e-03
132           	8.658251e-02	9.588700e-03	1.710875e-01	1.721263e-01	-1.038754e-03
133           	8.672025e-02	9.574316e-03	1.715260e-01	1.724832e-01	-9.572573e-04
134           	8.679010e-02	9.582297e-03	1.718943e-01	1.727372e-01	-8.429785e-04
135           	8.680868e-02	9.602721e-03	1.721765e-01	1.728969e-01	-7.204508e-04
136           	8.682012e-02	9.619649e-03	1.724064e-01	1.730233e-01	-6.169256e-04
137           	8.685429e-02	9.621954e-03	1.725987e-01	1.731536e-01	-5.549673e-04
138           	8.694282e-02	9.606414e-03	1.728849e-01	1.733853e-01	-5.003640e-04
139           	8.703779e-02	9.585077e-03	1.731489e-01	1.736122e-01	-4.633298e-04
140           	8.720250e-02	9.552296e-03	1.735784e-01	1.739917e-01	-4.132827e-04
141           	8.729416e-02	9.536110e-03	1.738727e-01	1.742305e-01	-3.578241e-04
142           	8.738164e-02	9.526556e-03	1.741982e-01	1.744807e-01	-2.825481e-04
143           	8.745836e-02	9.524330e-03	1.745331e-01	1.747249e-01	-1.918220e-04
144           	8.752234e-02	9.527912e-03	1.748443e-01	1.749445e-01	-1.001713e-04
145           	8.758301e-02	9.533130e-03	1.751294e-01	1.751477e-01	-1.833091e-05
146           	8.765047e-02	9.535854e-03	1.754016e-01	1.753513e-01	5.032375e-05
147           	8.772772e-02	9.533695e-03	1.756694e-01	1.755624e-01	1.070005e-04
148           	8.781296e-02	9.526308e-03	1.759404e-01	1.757831e-01	1.572176e-04
149           	8.790319e-02	9.514630e-03	1.762207e-01	1.760136e-01	2.071782e-04
150           	8.799413e-02	9.500369e-03	1.765110e-01	1.762497e-01	2.613896e-04
151           	8.807790e-02	9.486114e-03	1.767991e-01	1.764774e-01	3.216442e-04
152           	8.810407e-02	9.484245e-03	1.769231e-01	1.765656e-01	3.574940e-04
153           	8.819694e-02	9.465530e-03	1.772992e-01	1.768465e-01	4.526427e-04
154           	8.824046e-02	9.462825e-03	1.774651e-01	1.769730e-01	4.920961e-04
155           	8.834678e-02	9.456340e-03	1.778961e-01	1.772948e-01	6.012496e-04
156           	8.838938e-02	9.458594e-03	1.780514e-01	1.774151e-01	6.363438e-04
157           	8.849640e-02	9.463362e-03	1.784110e-01	1.777019e-01	7.091083e-04
158           	8.853373e-02	9.465108e-03	1.785531e-01	1.778103e-01	7.428372e-04
159           	8.866016e-02	9.460554e-03	1.789319e-01	1.781261e-01	8.058111e-04
160           	8.869790e-02	9.458911e-03	1.790757e-01	1.782357e-01	8.399520e-04
161           	8.874675e-02	9.451945e-03	1.792524e-01	1.783729e-01	8.794287e-04
162           	8.887991e-02	9.424128e-03	1.796902e-01	1.787250e-01	9.651732e-04
163           	8.892931e-02	9.417405e-03	1.798628e-01	1.788607e-01	1.002070e-03
164           	8.897425e-02	9.410803e-03	1.800324e-01	1.789905e-01	1.041953e-03
165           	8.901926e-02	9.403490e-03	1.802241e-01	1.791313e-01	1.092804e-03
166           	8.911518e-02	9.395346e-03	1.806330e-01	1.794317e-01	1.201317e-03
167           	8.914405e-02	9.398272e-03	1.807694e-01	1.795287e-01	1.240645e-03
168           	8.917765e-02	9.402561e-03	1.809043e-01	1.796298e-01	1.274476e-03
169           	8.922942e-02	9.405550e-03	1.810760e-01	1.797674e-01	1.308580e-03
170           	8.930749e-02	9.405952e-03	1.813081e-01	1.799615e-01	1.346551e-03
171           	8.949923e-02	9.398422e-03	1.818270e-01	1.804127e-01	1.414291e-03
172           	8.955689e-02	9.397743e-03	1.820028e-01	1.805583e-01	1.444532e-03
173           	8.960058e-02	9.391606e-03	1.821561e-01	1.806786e-01	1.477453e-03
174           	8.963571e-02	9.378825e-03	1.823110e-01	1.807912e-01	1.519807e-03
175           	8.966442e-02	9.363578e-03	1.824753e-01	1.809021e-01	1.573228e-03
176           	8.968991e-02	9.352359e-03	1.826440e-01	1.810119e-01	1.632066e-03
177           	8.972020e-02	9.347778e-03	1.828193e-01	1.811299e-01	1.689472e-03
178           	8.976522e-02	9.348364e-03	1.830119e-01	1.812712e-01	1.740732e-03
179           	8.983276e-02	9.351425e-03	1.832326e-01	1.814491e-01	1.783543e-03
180           	8.992228e-02	9.354677e-03	1.834805e-01	1.816625e-01	1.817958e-03
181           	9.001981e-02	9.356227e-03	1.837326e-01	1.818861e-01	1.846509e-03
182           	9.010800e-02	9.354738e-03	1.839638e-01	1.820899e-01	1.873910e-03
183           	9.017900e-02	9.349944e-03	1.841680e-01	1.822630e-01	1.905010e-03
184           	9.023186e-02	9.342504e-03	1.843502e-01	1.824069e-01	1.943214e-03
185           	9.026720e-02	9.333857e-03	1.845118e-01	1.825231e-01	1.988715e-03
186           	9.028957e-02	9.325744e-03	1.846547e-01	1.826169e-01	2.037803e-03
187           	9.030879e-02	9.319221e-03	1.847892e-01	1.827034e-01	2.085785e-03
188           	9.033576e-02	9.314551e-03	1.849303e-01	1.828009e-01	2.129396e-03
189           	9.037876e-02	9.311710e-03	1.850926e-01	1.829251e-01	2.167557e-03
190           	9.044105e-02	9.310660e-03	1.852822e-01	1.830821e-01	2.200041e-03
191           	9.051797e-02	9.310847e-03	1.854909e-01	1.832634e-01	2.227474e-03
192           	9.059824e-02	9.310968e-03	1.857015e-01	1.834490e-01	2.252504e-03
193           	9.067251e-02	9.309785e-03	1.859041e-01	1.836245e-01	2.279517e-03
194           	9.073447e-02	9.306892e-03	1.860933e-01	1.837811e-01	2.312206e-03
195           	9.077934e-02	9.302822e-03	1.862602e-01	1.839094e-01	2.350749e-03
196           	9.080905e-02	9.298435e-03	1.864018e-01	1.840099e-01	2.391832e-03
197           	9.083249e-02	9.294086e-03	1.865287e-01	1.840968e-01	2.431843e-03
198           	9.085939e-02	9.289774e-03	1.866549e-01	1.841868e-01	2.468037e-03
199           	9.089381e-02	9.285478e-03	1.867841e-01	1.842859e-01	2.498267e-03
200           	9.094202e-02	9.281599e-03	1.869354e-01	1.844097e-01	2.525669e-03
201           	9.096250e-02	9.281537e-03	1.869969e-01	1.844609e-01	2.535954e-03
202           	9.105256e-02	9.277694e-03	1.872493e-01	1.846772e-01	2.572068e-03
203           	9.108359e-02	9.275824e-03	1.873413e-01	1.847542e-01	2.587051e-03
204           	9.120424e-02	9.271105e-03	1.876877e-01	1.850481e-01	2.639583e-03
205           	9.122794e-02	9.270436e-03	1.877683e-01	1.851121e-01	2.656197e-03
206           	9.129426e-02	9.268463e-03	1.879970e-01	1.852928e-01	2.704249e-03
207           	9.130630e-02	9.268281e-03	1.880515e-01	1.853320e-01	2.719433e-03
208           	9.135157e-02	9.262849e-03	1.882320e-01	1.854676e-01	2.764415e-03
209           	9.136508e-02	9.262246e-03	1.882882e-01	1.855092e-01	2.779022e-03
210           	9.142124e-02	9.257185e-03	1.884840e-01	1.856632e-01	2.820761e-03
211           	9.143836e-02	9.256341e-03	1.885433e-01	1.857100e-01	2.833290e-03
212           	9.149457e-02	9.254244e-03	1.887168e-01	1.858530e-01	2.863850e-03
213           	9.151272e-02	9.253142e-03	1.887743e-01	1.858999e-01	2.874451e-03
214           	9.158940e-02	9.249950e-03	1.889945e-01	1.860866e-01	2.907851e-03
215           	9.161233e-02	9.249043e-03	1.890655e-01	1.861451e-01	2.920404e-03
216           	9.169068e-02	9.244526e-03	1.892937e-01	1.863375e-01	2.956146e-03
217           	9.170568e-02	9.244451e-03	1.893464e-01	1.863789e-01	2.967525e-03
218           	9.176034e-02	9.239240e-03	1.895303e-01	1.865255e-01	3.004827e-03
219           	9.177477e-02	9.238567e-03	1.895858e-01	1.865677e-01	3.018152e-03
220           	9.183318e-02	9.233344e-03	1.897901e-01	1.867282e-01	3.061859e-03
221           	9.184779e-02	9.232355e-03	1.898442e-01	1.867699e-01	3.074307e-03
222           	9.189950e-02	9.230722e-03	1.900147e-01	1.869069e-01	3.107858e-03
223           	9.191441e-02	9.229992e-03	1.900649e-01	1.869468e-01	3.118029e-03
224           	9.197236e-02	9.229045e-03	1.902380e-01	1.870913e-01	3.146624e-03
225           	9.198971e-02	9.229033e-03	1.902924e-01	1.871359e-01	3.156485e-03
226           	9.205436e-02	9.227057e-03	1.904762e-01	1.872925e-01	3.183752e-03
227           	9.206896e-02	9.227442e-03	1.905232e-01	1.873306e-01	3.192642e-03
228           	9.212752e-02	9.223171e-03	1.907008e-01	1.874779e-01	3.222873e-03
229           	9.214213e-02	9.222618e-03	1.907510e-01	1.875176e-01	3.233381e-03
230           	9.219139e-02	9.218481e-03	1.909155e-01	1.876491e-01	3.266346e-03
231           	9.220473e-02	9.217198e-03	1.909638e-01	1.876866e-01	3.277173e-03
232           	9.225485e-02	9.213935e-03	1.911317e-01	1.878207e-01	3.310993e-03
233           	9.226942e-02	9.212675e-03	1.911823e-01	1.878606e-01	3.321746e-03
234           	9.232000e-02	9.210295e-03	1.913400e-01	1.879900e-01	3.349991e-03
235           	9.233416e-02	9.209911e-03	1.913868e-01	1.880275e-01	3.359221e-03
236           	9.238146e-02	9.207664e-03	1.915269e-01	1.881449e-01	3.382013e-03
237           	9.239505e-02	9.207854e-03	1.915706e-01	1.881803e-01	3.390238e-03
238           	9.245192e-02	9.204780e-03	1.917378e-01	1.883208e-01	3.416958e-03
239           	9.246812e-02	9.204755e-03	1.917886e-01	1.883624e-01	3.426199e-03
240           	9.251899e-02	9.203557e-03	1.919427e-01	1.884903e-01	3.452360e-03
241           	9.253248e-02	9.202968e-03	1.919867e-01	1.885258e-01	3.460869e-03
242           	9.257607e-02	9.201881e-03	1.921242e-01	1.886382e-01	3.486031e-03
243           	9.258945e-02	9.200932e-03	1.921694e-01	1.886742e-01	3.495265e-03
244           	9.263057e-02	9.198627e-03	1.922997e-01	1.887804e-01	3.519281e-03
245           	9.264238e-02	9.198046e-03	1.923414e-01	1.888131e-01	3.528305e-03
246           	9.267868e-02	9.194360e-03	1.924568e-01	1.889071e-01	3.549725e-03
247           	9.268958e-02	9.193820e-03	1.924950e-01	1.889371e-01	3.557899e-03
248           	9.273345e-02	9.188848e-03	1.926323e-01	1.890496e-01	3.582720e-03
249           	9.274802e-02	9.187869e-03	1.926799e-01	1.890880e-01	3.591917e-03
250           	9.279453e-02	9.185686e-03	1.928206e-01	1.892048e-01	3.615763e-03
251           	9.280866e-02	9.185066e-03	1.928643e-01	1.892408e-01	3.623496e-03
252           	9.285857e-02	9.185188e-03	1.930084e-01	1.893628e-01	3.645658e-03
253           	9.287408e-02	9.184977e-03	1.930547e-01	1.894014e-01	3.653285e-03
254           	9.291882e-02	9.185013e-03	1.931811e-01	1.895093e-01	3.671711e-03
255           	9.293138e-02	9.185257e-03	1.932202e-01	1.895415e-01	3.678714e-03
256           	9.296553e-02	9.183445e-03	1.933227e-01	1.896269e-01	3.695834e-03
257           	9.297574e-02	9.183257e-03	1.933575e-01	1.896545e-01	3.703017e-03
258           	9.300939e-02	9.179488e-03	1.934697e-01	1.897443e-01	3.725478e-03
259           	9.302016e-02	9.178344e-03	1.935090e-01	1.897747e-01	3.734354e-03
260           	9.304953e-02	9.175703e-03	1.936132e-01	1.898561e-01	3.757045e-03
261           	9.305961e-02	9.174575e-03	1.936496e-01	1.898844e-01	3.765209e-03
262           	9.309422e-02	9.172946e-03	1.937616e-01	1.899750e-01	3.786582e-03
263           	9.310766e-02	9.172237e-03	1.938043e-01	1.900098e-01	3.794491e-03
264           	9.315213e-02	9.170603e-03	1.939275e-01	1.901159e-01	3.811603e-03
265           	9.316591e-02	9.170748e-03	1.939674e-01	1.901496e-01	3.817788e-03
266           	9.320643e-02	9.169108e-03	1.940751e-01	1.902440e-01	3.831130e-03
267           	9.321908e-02	9.169247e-03	1.941119e-01	1.902750e-01	3.836841e-03
268           	9.325571e-02	9.167873e-03	1.942169e-01	1.903641e-01	3.852730e-03
269           	9.326756e-02	9.167419e-03	1.942545e-01	1.903948e-01	3.859674e-03
270           	9.329720e-02	9.166810e-03	1.943512e-01	1.904728e-01	3.878419e-03
271           	9.330678e-02	9.166097e-03	1.943855e-01	1.904995e-01	3.885947e-03
272           	9.333217e-02	9.165207e-03	1.944746e-01	1.905695e-01	3.905126e-03
273           	9.334135e-02	9.164547e-03	1.945085e-01	1.905956e-01	3.912891e-03
274           	9.336713e-02	9.162053e-03	1.945930e-01	1.906636e-01	3.929386e-03
275           	9.339164e-02	9.159649e-03	1.946697e-01	1.907265e-01	3.943221e-03
276           	9.341824e-02	9.157609e-03	1.947475e-01	1.907920e-01	3.955535e-03
277           	9.344271e-02	9.156255e-03	1.948165e-01	1.908509e-01	3.965522e-03
278           	9.346362e-02	9.155198e-03	1.948748e-01	1.909010e-01	3.973807e-03
279           	9.348259e-02	9.154962e-03	1.949292e-01	1.909472e-01	3.982014e-03
280           	9.349002e-02	9.154922e-03	1.949525e-01	1.909663e-01	3.986244e-03
281           	9.350934e-02	9.155846e-03	1.950163e-01	1.910175e-01	3.998786e-03
282           	9.351732e-02	9.155788e-03	1.950450e-01	1.910398e-01	4.005162e-03
283           	9.353943e-02	9.155013e-03	1.951193e-01	1.910991e-01	4.020228e-03
284           	9.354803e-02	9.154798e-03	1.951502e-01	1.911231e-01	4.027058e-03
285           	9.357902e-02	9.150790e-03	1.952470e-01	1.912025e-01	4.044465e-03
286           	9.359029e-02	9.149848e-03	1.952834e-01	1.912320e-01	4.051410e-03
287           	9.363009e-02	9.145353e-03	1.953996e-01	1.913299e-01	4.069731e-03
288           	9.366028e-02	9.142693e-03	1.954861e-01	1.914033e-01	4.082776e-03
289           	9.369032e-02	9.142635e-03	1.955691e-01	1.914749e-01	4.094223e-03
290           	9.371307e-02	9.143625e-03	1.956316e-01	1.915289e-01	4.102742e-03
291           	9.372924e-02	9.144976e-03	1.956780e-01	1.915682e-01	4.109747e-03
292           	9.373866e-02	9.146246e-03	1.957095e-01	1.915934e-01	4.116101e-03
293           	9.374409e-02	9.147689e-03	1.957352e-01	1.916117e-01	4.123504e-03
294           	9.374582e-02	9.148482e-03	1.957482e-01	1.916199e-01	4.128276e-03
295           	9.375039e-02	9.148217e-03	1.957804e-01	1.916406e-01	4.139797e-03
296           	9.375371e-02	9.147460e-03	1.957994e-01	1.916534e-01	4.146002e-03
297           	9.376933e-02	9.143727e-03	1.958603e-01	1.916995e-01	4.160798e-03
298           	9.377850e-02	9.142011e-03	1.958918e-01	1.917244e-01	4.167418e-03
299           	9.381516e-02	9.137733e-03	1.959954e-01	1.918129e-01	4.182557e-03
300           	9.382975e-02	9.136528e-03	1.960364e-01	1.918480e-01	4.188457e-03
301           	9.387243e-02	9.134476e-03	1.961443e-01	1.919446e-01	4.199736e-03
302           	9.388495e-02	9.133958e-03	1.961777e-01	1.919738e-01	4.203895e-03
303           	9.391588e-02	9.133842e-03	1.962565e-01	1.920441e-01	4.212342e-03
304           	9.392498e-02	9.133961e-03	1.962825e-01	1.920662e-01	4.216262e-03
305           	9.394499e-02	9.134082e-03	1.963428e-01	1.921164e-01	4.226413e-03
306           	9.395752e-02	9.134352e-03	1.963869e-01	1.921509e-01	4.235904e-03
307           	9.396992e-02	9.134484e-03	1.964361e-01	1.921880e-01	4.248140e-03
308           	9.397971e-02	9.133944e-03	1.964789e-01	1.922192e-01	4.259732e-03
309           	9.398709e-02	9.132754e-03	1.965115e-01	1.922428e-01	4.268650e-03
310           	9.399640e-02	9.130894e-03	1.965477e-01	1.922703e-01	4.277459e-03
311           	9.400578e-02	9.128864e-03	1.965800e-01	1.922958e-01	4.284204e-03
312           	9.401789e-02	9.126698e-03	1.966165e-01	1.923261e-01	4.290335e-03
313           	9.403266e-02	9.124560e-03	1.966573e-01	1.923613e-01	4.296004e-03
314           	9.404004e-02	9.123709e-03	1.966783e-01	1.923792e-01	4.299114e-03
315           	9.406238e-02	9.121228e-03	1.967379e-01	1.924313e-01	4.306593e-03
316           	9.407097e-02	9.120319e-03	1.967627e-01	1.924523e-01	4.310379e-03
317           	9.409566e-02	9.118552e-03	1.968349e-01	1.925131e-01	4.321805e-03
318           	9.410505e-02	9.118265e-03	1.968650e-01	1.925375e-01	4.327442e-03
319           	9.413144e-02	9.118155e-03	1.969501e-01	1.926065e-01	4.343614e-03
320           	9.413954e-02	9.118358e-03	1.969788e-01	1.926290e-01	4.349886e-03
321           	9.415910e-02	9.118914e-03	1.970462e-01	1.926822e-01	4.363989e-03
322           	9.416544e-02	9.119063e-03	1.970687e-01	1.926998e-01	4.368920e-03
323           	9.418121e-02	9.119190e-03	1.971196e-01	1.927410e-01	4.378595e-03
324           	9.418674e-02	9.119186e-03	1.971377e-01	1.927556e-01	4.382104e-03
325           	9.420053e-02	9.118539e-03	1.971791e-01	1.927901e-01	4.389037e-03
326           	9.420541e-02	9.118210e-03	1.971948e-01	1.928028e-01	4.391994e-03
327           	9.421855e-02	9.115956e-03	1.972358e-01	1.928365e-01	4.399373e-03
328           	9.422374e-02	9.115076e-03	1.972536e-01	1.928505e-01	4.403051e-03
329           	9.423989e-02	9.112179e-03	1.973066e-01	1.928932e-01	4.413421e-03
330           	9.424610e-02	9.111395e-03	1.973287e-01	1.929104e-01	4.418240e-03
331           	9.426465e-02	9.109618e-03	1.973899e-01	1.929596e-01	4.430322e-03
332           	9.427134e-02	9.109330e-03	1.974130e-01	1.929779e-01	4.435169e-03
333           	9.428960e-02	9.108773e-03	1.974706e-01	1.930249e-01	4.445703e-03
334           	9.429674e-02	9.108800e-03	1.974933e-01	1.930434e-01	4.449920e-03
335           	9.431516e-02	9.108706e-03	1.975480e-01	1.930892e-01	4.458828e-03
336           	9.432163e-02	9.108812e-03	1.975680e-01	1.931056e-01	4.462381e-03
337           	9.433676e-02	9.108530e-03	1.976132e-01	1.931434e-01	4.469831e-03
338           	9.434215e-02	9.108422e-03	1.976309e-01	1.931576e-01	4.473324e-03
339           	9.435596e-02	9.107536e-03	1.976747e-01	1.931933e-01	4.481413e-03
340           	9.436107e-02	9.107230e-03	1.976931e-01	1.932076e-01	4.485462e-03
341           	9.437503e-02	9.106168e-03	1.977400e-01	1.932450e-01	4.494981e-03
342           	9.437986e-02	9.105858e-03	1.977580e-01	1.932589e-01	4.499138e-03
343           	9.439220e-02	9.104989e-03	1.978012e-01	1.932928e-01	4.508404e-03
344           	9.439690e-02	9.104748e-03	1.978180e-01	1.933059e-01	4.512112e-03
345           	9.440909e-02	9.103636e-03	1.978591e-01	1.933387e-01	4.520474e-03
346           	9.441373e-02	9.103312e-03	1.978749e-01	1.933512e-01	4.523707e-03
347           	9.442706e-02	9.101822e-03	1.979175e-01	1.933858e-01	4.531697e-03
348           	9.443217e-02	9.101304e-03	1.979340e-01	1.933992e-01	4.534834e-03
349           	9.444717e-02	9.099731e-03	1.979795e-01	1.934369e-01	4.542557e-03
350           	9.445321e-02	9.099183e-03	1.979982e-01	1.934523e-01	4.545914e-03
351           	9.447123e-02	9.098003e-03	1.980522e-01	1.934973e-01	4.554847e-03
352           	9.447743e-02	9.097838e-03	1.980722e-01	1.935135e-01	4.558679e-03
353           	9.449258e-02	9.097875e-03	1.981211e-01	1.935531e-01	4.567989e-03
354           	9.449734e-02	9.098088e-03	1.981383e-01	1.935665e-01	4.571817e-03
355           	9.450779e-02	9.098599e-03	1.981764e-01	1.935960e-01	4.580419e-03
356           	9.451126e-02	9.098938e-03	1.981898e-01	1.936062e-01	4.583655e-03
357           	9.451941e-02	9.098799e-03	1.982206e-01	1.936297e-01	4.590876e-03
358           	9.452263e-02	9.098749e-03	1.982327e-01	1.936390e-01	4.593710e-03
359           	9.453150e-02	9.097900e-03	1.982639e-01	1.936635e-01	4.600458e-03
360           	9.453539e-02	9.097477e-03	1.982774e-01	1.936741e-01	4.603316e-03
361           	9.454651e-02	9.095917e-03	1.983132e-01	1.937031e-01	4.610081e-03
362           	9.455112e-02	9.095401e-03	1.983282e-01	1.937152e-01	4.612979e-03
363           	9.456432e-02	9.094011e-03	1.983700e-01	1.937493e-01	4.620660e-03
364           	9.456919e-02	9.093779e-03	1.983862e-01	1.937623e-01	4.623921e-03
365           	9.458215e-02	9.093366e-03	1.984275e-01	1.937959e-01	4.631619e-03
366           	9.458678e-02	9.093342e-03	1.984431e-01	1.938084e-01	4.634794e-03