/*--------------------------------*- C++ -*----------------------------------*\
  =========                 |
  \\      /  F ield         | OpenFOAM: The Open Source CFD Toolbox
   \\    /   O peration     | Website:  https://openfoam.org
    \\  /    A nd           | Version:  11
     \\/     M anipulation  |
\*---------------------------------------------------------------------------*/
FoamFile
{
    format      ascii;
    class       volScalarField;
    location    "300";
    object      p;
}
// * * * * * * * * * * * * * * * * * * * * * * * * * * * * * * * * * * * * * //

dimensions      [0 2 -2 0 0 0 0];

internalField   nonuniform List<scalar> 
31595
(
0.19566
0.105024
0.157038
0.149832
0.174212
0.177531
0.196547
0.205347
0.221143
0.232759
0.247462
0.260503
0.274978
0.288894
0.30352
0.318047
0.33297
0.347964
0.363205
0.378555
0.394061
0.409653
0.425322
0.441018
0.456711
0.472354
0.487903
0.503313
0.518536
0.533524
0.548231
0.562613
0.576633
0.590253
0.603447
0.616194
0.628487
0.640326
0.651726
0.662715
0.673337
0.683651
0.693733
0.703676
0.713588
0.723594
0.733837
0.744472
0.755673
0.767623
0.780521
0.794575
0.810004
0.827039
0.845914
0.866872
0.890162
0.91604
0.944759
0.976577
1.01175
1.05055
1.0932
1.13996
1.19106
1.24671
1.30709
1.37235
1.44261
1.51789
1.59812
1.68316
1.77262
1.86604
1.96228
2.06073
2.15792
2.25496
2.33952
2.42514
2.46357
2.52812
2.43356
2.48231
2.03944
2.09684
0.860072
0.862592
-2.21604
0.157077
0.125872
0.141086
0.155834
0.169355
0.179897
0.193831
0.205909
0.219254
0.232104
0.245632
0.259057
0.272907
0.286854
0.301108
0.315535
0.33021
0.345073
0.360144
0.375388
0.390796
0.406338
0.421993
0.437729
0.453516
0.469322
0.48511
0.500845
0.516491
0.532012
0.547377
0.562554
0.577514
0.59224
0.606715
0.620936
0.634904
0.648635
0.662154
0.6755
0.688729
0.701908
0.71512
0.728466
0.74206
0.756033
0.770532
0.785718
0.801768
0.818869
0.837226
0.857052
0.878573
0.902025
0.927654
0.955713
0.986462
1.02017
1.05711
1.09757
1.14181
1.19013
1.2428
1.3001
1.36229
1.42964
1.50237
1.58069
1.66476
1.75468
1.85047
1.95205
2.05914
2.17134
2.28769
2.40754
2.52785
2.64917
2.76046
2.87313
2.94228
3.03628
2.97381
3.05715
2.63048
2.7448
1.46503
1.55331
-1.55605
0.142979
0.1317
0.137023
0.155947
0.168222
0.179899
0.192623
0.205261
0.217928
0.230821
0.243924
0.257233
0.270771
0.284544
0.298555
0.312805
0.32729
0.342004
0.356937
0.372078
0.387412
0.402922
0.418589
0.434389
0.450299
0.466294
0.48235
0.49844
0.514538
0.53062
0.546663
0.562652
0.578571
0.594412
0.610173
0.625862
0.641493
0.657092
0.672698
0.68836
0.704142
0.72012
0.736387
0.75305
0.770229
0.788063
0.806703
0.826316
0.847082
0.869197
0.892869
0.918319
0.94578
0.975498
1.00773
1.04273
1.08079
1.12218
1.1672
1.21614
1.26932
1.32703
1.3896
1.45733
1.53054
1.60951
1.69455
1.7859
1.88381
1.98844
2.0999
2.2182
2.34317
2.47452
2.61146
2.75336
2.8976
3.04428
3.18376
3.32505
3.42789
3.55275
3.52945
3.64603
3.25173
3.415
2.10691
2.23178
-1.08234
0.141025
0.134297
0.136834
0.15515
0.168019
0.179369
0.191735
0.204193
0.216603
0.229228
0.242071
0.255134
0.268431
0.281979
0.29578
0.309838
0.324151
0.338717
0.35353
0.368582
0.383863
0.399361
0.415061
0.430949
0.447008
0.463221
0.479571
0.496041
0.512616
0.52928
0.546024
0.562841
0.579728
0.596687
0.613731
0.630877
0.64815
0.665588
0.68324
0.701166
0.719437
0.73814
0.757375
0.777255
0.797911
0.819485
0.842135
0.866035
0.891371
0.918344
0.947171
0.97808
1.01131
1.04712
1.08578
1.12755
1.17274
1.22165
1.27457
1.33185
1.3938
1.46077
1.5331
1.61114
1.69525
1.78577
1.88305
1.98741
2.09915
2.21853
2.34576
2.48095
2.62404
2.77487
2.93286
3.09744
3.2664
3.43953
3.6085
3.78018
3.91908
4.07708
4.09838
4.24873
3.90031
4.10819
2.78345
2.92657
-0.693901
0.141633
0.137494
0.137685
0.154839
0.167944
0.178907
0.19082
0.202997
0.215126
0.227449
0.240014
0.252815
0.265864
0.27918
0.292769
0.306635
0.32078
0.335204
0.349905
0.364878
0.380117
0.395616
0.411367
0.427359
0.443584
0.460031
0.476692
0.493558
0.510622
0.52788
0.545332
0.56298
0.580834
0.598907
0.617219
0.635799
0.654686
0.673926
0.693576
0.713707
0.7344
0.755749
0.777863
0.800863
0.824886
0.850081
0.876614
0.904665
0.934427
0.96611
0.999936
1.03614
1.07498
1.11672
1.16163
1.21001
1.26216
1.31841
1.37908
1.44452
1.5151
1.59117
1.67313
1.76135
1.85625
1.95822
2.06767
2.18499
2.31055
2.44471
2.58778
2.73998
2.9014
3.07201
3.25144
3.43925
3.63361
3.83414
4.03372
4.23737
4.41415
4.60757
4.67714
4.86272
4.56965
4.81823
3.49054
3.75627
0.105967
0.143343
0.141064
0.139191
0.154879
0.16793
0.178465
0.189849
0.201663
0.213474
0.225468
0.237733
0.250256
0.263047
0.276124
0.289497
0.30317
0.317147
0.331433
0.346026
0.360927
0.376133
0.391643
0.407453
0.42356
0.43996
0.456651
0.473631
0.4909
0.50846
0.526316
0.544475
0.562952
0.581764
0.600932
0.620491
0.640478
0.66094
0.681934
0.703529
0.7258
0.74884
0.772751
0.79765
0.823665
0.85094
0.879633
0.909917
0.941978
0.976017
1.01225
1.05091
1.09225
1.13652
1.18401
1.23499
1.28979
1.34872
1.41213
1.48036
1.5538
1.63281
1.71782
1.80923
1.90749
2.01302
2.12631
2.24781
2.37799
2.51731
2.66621
2.82512
2.99439
3.17426
3.36488
3.56604
3.7775
3.99782
4.22659
4.45776
4.69493
4.91129
5.14271
5.26387
5.48766
5.25876
5.54562
4.24157
4.66825
0.94972
0.145055
0.144568
0.14101
0.155104
0.16788
0.177974
0.188777
0.200167
0.211623
0.223267
0.235208
0.247438
0.259959
0.272789
0.28594
0.299416
0.313225
0.327371
0.341858
0.356688
0.371865
0.387389
0.403263
0.419488
0.436067
0.453005
0.470305
0.487977
0.50603
0.524477
0.543334
0.562624
0.582374
0.602615
0.623389
0.644744
0.666735
0.68943
0.712904
0.737244
0.762549
0.78893
0.816512
0.84543
0.875837
0.907898
0.941792
0.977714
1.01587
1.0565
1.09982
1.14611
1.19563
1.24867
1.30554
1.36655
1.43206
1.50242
1.578
1.65921
1.74646
1.84018
1.94084
2.04891
2.16489
2.28928
2.42265
2.56551
2.71843
2.88194
3.05659
3.24285
3.44117
3.65183
3.87488
4.11028
4.35701
4.6147
4.87836
5.15051
5.40813
5.68046
5.85663
6.12336
5.96774
6.29554
5.0447
5.57582
1.51665
0.1465
0.147693
0.142895
0.155354
0.167697
0.177345
0.18755
0.198468
0.20954
0.220816
0.232415
0.244337
0.256578
0.269153
0.282074
0.295349
0.308986
0.32299
0.337368
0.352127
0.367272
0.382809
0.398745
0.415086
0.431843
0.449023
0.46664
0.484708
0.503243
0.522268
0.541806
0.561887
0.582547
0.603829
0.625779
0.648454
0.671921
0.696255
0.721538
0.747867
0.77535
0.804103
0.834261
0.865966
0.899378
0.934671
0.97203
1.01166
1.05378
1.09862
1.14643
1.19748
1.25205
1.31045
1.37299
1.44001
1.51188
1.58896
1.67167
1.76043
1.85567
1.95788
2.06754
2.18519
2.31137
2.44665
2.59165
2.74699
2.91329
3.09123
3.28145
3.48459
3.70124
3.93193
4.17692
4.43644
4.70987
4.99702
5.2939
5.60228
5.90264
6.21853
6.45279
6.76706
6.6929
7.06566
5.8995
6.49427
2.01375
0.147495
0.150228
0.144624
0.155492
0.16729
0.176497
0.186106
0.196523
0.207188
0.218085
0.229329
0.24093
0.252881
0.265192
0.277877
0.290945
0.304403
0.31826
0.332526
0.347209
0.362318
0.377864
0.393857
0.41031
0.427236
0.444651
0.462574
0.481024
0.500026
0.519609
0.539804
0.560649
0.582186
0.604467
0.627549
0.651495
0.676379
0.702284
0.729303
0.757539
0.787106
0.818132
0.850756
0.885131
0.921421
0.959809
1.00049
1.04367
1.08959
1.13848
1.1906
1.24623
1.30566
1.36922
1.43724
1.51006
1.58808
1.67168
1.76129
1.85737
1.9604
2.07086
2.18931
2.31631
2.45248
2.59844
2.75486
2.92246
3.10197
3.29416
3.49982
3.71973
3.95465
4.20533
4.47232
4.75609
5.05647
5.37354
5.70422
6.04987
6.39411
6.75567
7.05023
7.41548
7.42854
7.84761
6.78577
7.43555
3.06289
0.147979
0.152061
0.146035
0.155407
0.166577
0.175352
0.184386
0.194286
0.20453
0.215038
0.225918
0.237189
0.24884
0.26088
0.273321
0.286173
0.299445
0.313148
0.327295
0.341894
0.35696
0.372505
0.388547
0.405099
0.422183
0.439818
0.458029
0.476842
0.496288
0.516403
0.537224
0.558798
0.581173
0.604409
0.628569
0.653727
0.679963
0.707368
0.736041
0.766094
0.797649
0.830842
0.865817
0.902736
0.941773
0.983116
1.02697
1.07355
1.12309
1.17586
1.2321
1.29212
1.35623
1.42475
1.49802
1.57643
1.66037
1.75025
1.84654
1.94971
2.06026
2.17874
2.30572
2.44183
2.58772
2.7441
2.91169
3.09131
3.28378
3.48998
3.71084
3.9473
4.20034
4.47088
4.75978
5.06782
5.39525
5.74251
6.10744
6.49121
6.88038
7.28968
7.64675
8.06726
8.17354
8.64342
7.70143
8.41159
4.21566
0.147915
0.153125
0.147002
0.155005
0.165494
0.173844
0.182332
0.191713
0.201526
0.21164
0.22215
0.233083
0.244427
0.256186
0.268375
0.281002
0.29408
0.30762
0.321636
0.33614
0.351151
0.366683
0.382757
0.399394
0.416617
0.434452
0.452927
0.472078
0.491939
0.512551
0.53396
0.556219
0.579386
0.603523
0.628702
0.655005
0.682518
0.71134
0.741578
0.77335
0.806787
0.84203
0.879233
0.918563
0.960203
1.00435
1.05121
1.10101
1.15401
1.21045
1.27063
1.33483
1.40338
1.47663
1.55492
1.63867
1.72827
1.82417
1.92685
2.03682
2.15459
2.28077
2.41597
2.56086
2.71612
2.88255
3.06095
3.2522
3.45723
3.67704
3.9127
4.16533
4.43606
4.72608
5.03653
5.36852
5.72278
6.10013
6.49936
6.92169
7.35645
7.81533
8.23693
8.71772
8.92343
9.45398
8.65461
9.41861
5.03764
0.147298
0.153393
0.147433
0.154214
0.163986
0.17192
0.179893
0.188764
0.198142
0.207861
0.217998
0.228585
0.239614
0.251086
0.263013
0.275407
0.288279
0.301644
0.315517
0.329913
0.344852
0.360356
0.376445
0.393146
0.410485
0.428494
0.447208
0.466664
0.486905
0.507976
0.529931
0.552827
0.576729
0.601708
0.627842
0.655216
0.683927
0.71408
0.745787
0.779177
0.814384
0.851557
0.890859
0.932463
0.976557
1.02335
1.07305
1.12591
1.18216
1.2421
1.30599
1.37416
1.44693
1.52467
1.60775
1.69657
1.79157
1.89321
2.002
2.11846
2.24316
2.37671
2.51978
2.67308
2.83737
3.01347
3.20228
3.40476
3.62194
3.85493
4.10494
4.37327
4.66124
4.97027
5.30183
5.65735
6.03805
6.44522
6.87857
7.33962
7.82023
8.32992
8.81744
9.36223
9.67229
10.2709
9.64076
10.4503
5.90095
0.146127
0.152858
0.147264
0.152972
0.162013
0.169536
0.177029
0.185402
0.194345
0.203671
0.213434
0.223673
0.234381
0.245558
0.257214
0.269364
0.282021
0.295197
0.308912
0.323186
0.338037
0.353492
0.369576
0.386317
0.403748
0.421904
0.440824
0.460551
0.481135
0.502622
0.525078
0.548561
0.573143
0.598901
0.62592
0.654293
0.684122
0.715517
0.748601
0.783505
0.820372
0.859358
0.900632
0.944376
0.990784
1.04007
1.09246
1.14819
1.20754
1.27078
1.3382
1.41013
1.48693
1.56894
1.65657
1.75025
1.85041
1.95755
2.07219
2.19488
2.32623
2.46689
2.61756
2.77898
2.95199
3.13747
3.33639
3.54978
3.77879
4.02464
4.28867
4.57236
4.87724
5.20499
5.55734
5.93611
6.343
6.77981
7.24716
7.74698
8.27359
8.83479
9.38884
9.99964
10.4167
11.0849
10.6375
11.4914
7.48832
0.144406
0.151528
0.146447
0.151234
0.159541
0.166657
0.173703
0.181596
0.190108
0.199041
0.208431
0.218319
0.228699
0.239573
0.250949
0.262843
0.275269
0.288243
0.301785
0.315916
0.330659
0.346042
0.362094
0.378849
0.39634
0.414609
0.433699
0.453657
0.474536
0.496393
0.519294
0.543305
0.568502
0.59497
0.622799
0.652088
0.682945
0.715487
0.749842
0.786149
0.824556
0.865227
0.908337
0.954074
1.00264
1.05426
1.10916
1.16759
1.22984
1.29617
1.36692
1.4424
1.52297
1.60902
1.70096
1.79922
1.90427
2.01661
2.1368
2.26542
2.4031
2.55052
2.70842
2.87761
3.05895
3.2534
3.46199
3.68584
3.92621
4.18443
4.46199
4.76051
5.08175
5.42762
5.80017
6.20161
6.63411
7.10004
7.60092
8.1393
8.71178
9.32524
9.94662
10.627
11.1551
11.9028
11.6537
12.5678
8.80072
0.142141
0.149417
0.144952
0.148962
0.156546
0.163257
0.169884
0.177317
0.185404
0.193947
0.202966
0.212499
0.222546
0.233108
0.244194
0.255819
0.268
0.280754
0.294102
0.308069
0.322679
0.337965
0.353958
0.370694
0.388211
0.406555
0.425774
0.445918
0.467044
0.489214
0.5125
0.536975
0.562719
0.589821
0.618378
0.648494
0.680283
0.713868
0.749383
0.786973
0.826793
0.869012
0.913812
0.961387
1.01195
1.06572
1.12295
1.18389
1.24882
1.31804
1.39188
1.47066
1.55477
1.64459
1.74055
1.8431
1.95272
2.06995
2.19535
2.32954
2.47316
2.62693
2.79165
2.96815
3.15735
3.36026
3.57798
3.81173
4.06284
4.33277
4.62313
4.93573
5.27251
5.63564
6.02747
6.45059
6.90766
7.40163
7.93491
8.5108
9.1281
9.79338
10.4815
11.2335
11.8738
12.7103
12.6753
13.6628
10.0003
0.139338
0.146551
0.142761
0.146128
0.15301
0.159318
0.165553
0.172547
0.180216
0.188373
0.197021
0.206196
0.215905
0.226147
0.236931
0.248274
0.260193
0.272709
0.285844
0.299623
0.314076
0.329237
0.345138
0.361822
0.379329
0.397707
0.417009
0.437289
0.458612
0.481042
0.504653
0.529523
0.555743
0.583401
0.612602
0.643455
0.67608
0.710604
0.747169
0.785924
0.827032
0.870665
0.917013
0.966277
1.01867
1.07444
1.13381
1.19707
1.2645
1.33641
1.41311
1.49498
1.58238
1.67573
1.77546
1.88203
1.99595
2.11778
2.24808
2.38751
2.53675
2.69654
2.86771
3.05113
3.24779
3.45874
3.68515
3.92832
4.18968
4.47079
4.77341
5.09949
5.45118
5.8309
6.24129
6.6853
7.16612
7.68725
8.25201
8.8645
9.52559
10.242
10.9958
11.8198
12.5722
13.5
13.6898
14.7512
11.5809
0.136
0.142957
0.139863
0.142711
0.148922
0.154827
0.160691
0.167266
0.174526
0.1823
0.190578
0.199394
0.208758
0.218669
0.22914
0.240187
0.251827
0.264085
0.276983
0.29055
0.304818
0.319821
0.335598
0.352192
0.369647
0.388016
0.407354
0.427719
0.449181
0.471809
0.49568
0.520877
0.547494
0.575626
0.605384
0.636879
0.670238
0.705595
0.743094
0.782892
0.825156
0.870066
0.917816
0.968614
1.02268
1.08026
1.14161
1.207
1.27672
1.3511
1.43046
1.51518
1.60564
1.70226
1.80549
1.91582
2.03376
2.15988
2.29478
2.43913
2.59364
2.75909
2.93633
3.12628
3.32998
3.54853
3.78318
4.03527
4.30635
4.59809
4.91238
5.2513
5.61722
6.01277
6.44093
6.90498
7.4086
7.9559
8.55107
9.19906
9.90275
10.6693
11.4876
12.384
13.248
14.2716
14.6925
15.8363
13.2426
0.13213
0.138665
0.136259
0.138699
0.144272
0.149777
0.155287
0.161463
0.168322
0.175715
0.183623
0.192077
0.201087
0.210659
0.220802
0.231536
0.242878
0.254855
0.267491
0.280818
0.294869
0.309681
0.325295
0.341758
0.359118
0.377429
0.396749
0.417144
0.438684
0.46144
0.485499
0.510947
0.537878
0.566396
0.596613
0.62865
0.662634
0.698706
0.737016
0.777724
0.821004
0.867041
0.916035
0.9682
1.02376
1.08297
1.14609
1.2134
1.2852
1.36182
1.4436
1.53091
1.62416
1.72377
1.83021
1.94397
2.06559
2.19565
2.33478
2.48366
2.64303
2.8137
2.99654
3.19253
3.40274
3.62832
3.87058
4.13096
4.41105
4.71264
5.03774
5.38859
5.76773
6.17804
6.62274
7.10551
7.63048
8.20233
8.8261
9.50769
10.2518
11.0666
11.9468
12.9148
13.888
15.0135
15.67
16.916
14.7061
0.127729
0.133709
0.131955
0.134081
0.139059
0.144166
0.149337
0.155131
0.161598
0.168612
0.17615
0.184237
0.192887
0.202106
0.211908
0.22231
0.233334
0.245006
0.257355
0.270411
0.284212
0.298796
0.314209
0.330498
0.347715
0.365918
0.385168
0.405532
0.427086
0.449906
0.474078
0.499696
0.526857
0.555671
0.586253
0.618728
0.653228
0.689898
0.728894
0.770381
0.814538
0.861555
0.911636
0.965003
1.02189
1.08255
1.14724
1.21627
1.28993
1.36857
1.45253
1.54219
1.63797
1.7403
1.84967
1.96657
2.09156
2.22524
2.36825
2.52129
2.68514
2.86062
3.04864
3.2502
3.46644
3.69853
3.94785
4.21591
4.50437
4.81513
5.15029
5.51225
5.90373
6.32779
6.78795
7.28821
7.83315
8.42802
9.07864
9.79185
10.5741
11.4346
12.3736
13.4109
14.4885
15.7157
16.6055
17.9598
16.3519
0.122796
0.12812
0.126963
0.128856
0.133282
0.137997
0.14284
0.148268
0.154349
0.160986
0.168151
0.175866
0.184147
0.193003
0.202446
0.212499
0.223183
0.234525
0.246557
0.259312
0.272828
0.287147
0.302317
0.318387
0.335411
0.353452
0.372574
0.392847
0.414349
0.43716
0.461371
0.487078
0.514384
0.543399
0.574247
0.607055
0.64196
0.679111
0.718669
0.760803
0.805697
0.853546
0.904561
0.958966
1.017
1.07893
1.14501
1.21556
1.29088
1.37132
1.45723
1.54901
1.64707
1.75187
1.86389
1.98365
2.11172
2.2487
2.39528
2.55215
2.72012
2.90004
3.09285
3.29959
3.5214
3.75955
4.01545
4.29065
4.58692
4.90624
5.25082
5.62318
6.0262
6.46315
6.93781
7.4545
8.01822
8.63475
9.31068
10.0537
10.872
11.776
12.7708
13.8747
15.0519
16.3802
17.4961
18.962
18.083
0.117328
0.121934
0.121303
0.123025
0.126948
0.131276
0.135799
0.140872
0.146575
0.152835
0.159623
0.16696
0.174861
0.183338
0.192407
0.202089
0.212408
0.223393
0.235077
0.247496
0.260689
0.274702
0.289583
0.305384
0.322164
0.339986
0.358917
0.379031
0.400409
0.423135
0.447302
0.473009
0.500366
0.529487
0.560492
0.593518
0.628708
0.666214
0.706198
0.748835
0.794314
0.842836
0.894613
0.949879
1.00888
1.07187
1.13914
1.21099
1.28773
1.36973
1.45734
1.55096
1.65102
1.75799
1.87234
1.99463
2.12542
2.26535
2.41508
2.57537
2.74702
2.93091
3.128
3.33938
3.5662
3.80979
4.07159
4.35322
4.65652
4.98354
5.33658
5.71831
6.13173
6.58032
7.06806
7.59959
8.18028
8.81642
9.51531
10.2855
11.1367
12.0807
13.1267
14.2935
15.5634
16.9926
18.3239
19.9178
19.5919
0.111324
0.115185
0.114997
0.116597
0.120063
0.124015
0.128221
0.13295
0.138281
0.144162
0.15057
0.15752
0.16503
0.173114
0.181789
0.191078
0.201007
0.211606
0.22291
0.234958
0.247789
0.261452
0.275998
0.291481
0.307961
0.325505
0.344183
0.364071
0.385252
0.407816
0.431856
0.457476
0.484789
0.513914
0.544975
0.578108
0.613463
0.651194
0.691469
0.734469
0.780385
0.82942
0.881797
0.937748
0.997524
1.06139
1.12964
1.20258
1.28053
1.36385
1.45291
1.54812
1.64992
1.75876
1.87517
1.99967
2.13287
2.27539
2.42793
2.59126
2.76618
2.95361
3.15454
3.37007
3.60139
3.84986
4.11697
4.4044
4.71403
5.04799
5.40869
5.79888
6.2217
6.68079
7.18036
7.72529
8.32132
8.97518
9.69481
10.4896
11.3705
12.3508
13.4432
14.6675
16.0212
17.5453
19.0731
20.7976
21.1317
0.104783
0.107906
0.108074
0.109585
0.11264
0.116227
0.120121
0.124512
0.129474
0.134975
0.140995
0.147549
0.154655
0.162329
0.17059
0.179463
0.188975
0.199158
0.210049
0.221687
0.234117
0.247385
0.261547
0.276659
0.292783
0.309988
0.328347
0.34794
0.368849
0.39117
0.415
0.440444
0.467618
0.496642
0.527648
0.560774
0.596172
0.634002
0.674435
0.717656
0.763858
0.813253
0.866063
0.922527
0.982902
1.04746
1.11649
1.19031
1.26925
1.35367
1.44394
1.5405
1.64377
1.75423
1.8724
1.99883
2.13412
2.27892
2.43394
2.59995
2.77778
2.96837
3.17273
3.39196
3.62733
3.88019
4.1521
4.44476
4.76011
5.10036
5.46799
5.86584
6.29718
6.76581
7.27609
7.83318
8.4431
9.11301
9.85139
10.6684
11.5761
12.5892
13.7234
14.9999
16.4288
18.0414
19.7442
21.5986
22.56
0.0977061
0.100133
0.100568
0.102008
0.104696
0.107929
0.111512
0.115569
0.120164
0.125281
0.130906
0.137052
0.143739
0.150984
0.158809
0.16724
0.176305
0.18604
0.196481
0.20767
0.219652
0.232478
0.246205
0.26089
0.276598
0.293399
0.31137
0.330591
0.35115
0.373142
0.396669
0.421839
0.448768
0.477584
0.508419
0.541414
0.576724
0.614515
0.654959
0.698246
0.744572
0.794152
0.847213
0.904
0.964771
1.0298
1.09939
1.17386
1.25354
1.3388
1.43002
1.52763
1.63207
1.74383
1.86342
1.99142
2.12843
2.2751
2.43217
2.6004
2.78067
2.9739
3.18112
3.40349
3.64226
3.89883
4.17477
4.47185
4.79206
5.13761
5.51109
5.91542
6.35396
6.83062
7.34994
7.91726
8.53889
9.22232
9.97652
10.8123
11.7427
12.7835
13.9533
15.275
16.7683
18.4611
20.315
22.3026
23.7363
0.0901
0.0919004
0.0925155
0.0938897
0.0962508
0.0991451
0.102417
0.106142
0.11037
0.115096
0.120317
0.126042
0.132293
0.13909
0.146456
0.154418
0.163007
0.172259
0.182213
0.192912
0.204404
0.216741
0.229978
0.244179
0.259411
0.275743
0.293255
0.312032
0.332162
0.353741
0.376875
0.401675
0.428261
0.456759
0.487312
0.520057
0.555154
0.592773
0.633088
0.676292
0.722587
0.772192
0.825336
0.882266
0.943247
1.00856
1.07851
1.15341
1.2336
1.31947
1.41139
1.5098
1.61515
1.72793
1.84867
1.97793
2.11634
2.26457
2.42334
2.59344
2.77575
2.97122
3.1809
3.40595
3.64764
3.90742
4.18687
4.48779
4.81221
5.1624
5.54099
5.95098
6.39581
6.8795
7.40674
7.98302
8.61488
9.3101
10.0781
10.9301
11.8801
12.9449
14.145
15.5055
17.0529
18.8149
20.7916
22.901
24.7806
0.0819762
0.0832434
0.0839585
0.0852611
0.0873292
0.0898989
0.092859
0.0962489
0.100107
0.104437
0.109241
0.114531
0.120329
0.126656
0.133537
0.141002
0.149083
0.157817
0.167245
0.177411
0.188365
0.200161
0.212857
0.226515
0.241205
0.257002
0.273984
0.292237
0.311854
0.332934
0.355583
0.379915
0.406054
0.434126
0.464273
0.496645
0.531401
0.568709
0.608753
0.651725
0.697833
0.747295
0.800348
0.857241
0.918242
0.983637
1.05373
1.12885
1.20934
1.29558
1.38796
1.48692
1.59291
1.70643
1.82802
1.95825
2.09775
2.24719
2.40732
2.57894
2.76292
2.96023
3.17194
3.39923
3.64337
3.90584
4.18826
4.49244
4.82043
5.17457
5.55752
5.97233
6.42254
6.91223
7.44618
8.03005
8.67052
9.37564
10.1551
11.0206
11.9866
13.0709
14.2954
15.6868
17.2766
19.0941
21.1635
23.3766
25.5503
0.0733548
0.0741982
0.0749425
0.076158
0.0779604
0.0802192
0.082865
0.0859152
0.0893973
0.0933217
0.0976956
0.102534
0.107858
0.113691
0.120061
0.126998
0.134537
0.142715
0.151575
0.161163
0.17153
0.182731
0.194826
0.20788
0.221964
0.237152
0.253527
0.271176
0.290193
0.310679
0.332742
0.356499
0.382075
0.409604
0.439222
0.471086
0.505356
0.542206
0.581818
0.62439
0.67013
0.719264
0.772028
0.828675
0.889477
0.954723
1.02472
1.0998
1.18031
1.26664
1.35918
1.45836
1.56466
1.67857
1.80063
1.93142
2.07158
2.22179
2.38279
2.55539
2.74049
2.93905
3.15214
3.38095
3.62679
3.89114
4.17561
4.48204
4.81252
5.16942
5.55538
5.97353
6.42742
6.92118
7.45968
8.04864
8.69486
9.4065
10.1934
11.0677
12.0441
13.1409
14.3811
15.7923
17.4093
19.2645
21.3956
23.6948
26.0189
0.0642662
0.0648017
0.0655163
0.0666229
0.0681796
0.0701393
0.0724676
0.075171
0.0782694
0.0817769
0.085706
0.0900739
0.0949027
0.100218
0.106049
0.112427
0.119388
0.126973
0.135224
0.144189
0.15392
0.164474
0.175912
0.1883
0.20171
0.21622
0.231912
0.248877
0.267209
0.287013
0.308396
0.331477
0.356386
0.383255
0.412229
0.44346
0.477115
0.513368
0.552404
0.594425
0.639643
0.688282
0.740585
0.796808
0.857225
0.922128
0.991829
1.06666
1.14698
1.23316
1.32562
1.42479
1.53114
1.64518
1.76745
1.89853
2.03906
2.18973
2.35129
2.52456
2.71043
2.90988
3.12399
3.35396
3.6011
3.8669
4.15299
4.46121
4.79368
5.15278
5.54119
5.96203
6.41892
6.91601
7.45823
8.05133
8.70219
9.41908
10.212
11.0931
12.0774
13.1835
14.4348
15.8597
17.4941
19.3723
21.5358
23.8875
26.2238
0.0547524
0.0550917
0.0557299
0.0567017
0.0580249
0.059694
0.0616995
0.0640462
0.0667497
0.0698268
0.073294
0.0771708
0.0814809
0.0862518
0.0915133
0.0972994
0.103647
0.110597
0.118195
0.126489
0.135533
0.145384
0.156105
0.167764
0.180434
0.194192
0.209124
0.22532
0.242879
0.261905
0.282509
0.304811
0.328939
0.355032
0.383233
0.413702
0.446603
0.482114
0.520422
0.561734
0.60626
0.654231
0.705891
0.761499
0.821332
0.885685
0.954872
1.02923
1.10912
1.19492
1.28705
1.38595
1.49208
1.60596
1.72814
1.8592
1.99978
2.15059
2.31237
2.48594
2.67221
2.87216
3.08687
3.31755
3.56553
3.83229
4.11947
4.42894
4.76281
5.12346
5.51361
5.9364
6.39543
6.8949
7.43973
8.03573
8.68981
9.41023
10.207
11.0924
12.0815
13.1929
14.4499
15.8809
17.5213
19.4055
21.5701
23.9197
26.2176
0.0448727
0.0451075
0.0456358
0.0464473
0.0475408
0.048923
0.0505985
0.0525758
0.0548709
0.0575017
0.0604876
0.0638509
0.0676169
0.0718143
0.0764749
0.0816339
0.0873296
0.0936039
0.100503
0.108077
0.11638
0.12547
0.135412
0.146274
0.15813
0.17106
0.18515
0.200491
0.217183
0.23533
0.255048
0.276457
0.299688
0.324876
0.352173
0.381735
0.413732
0.448341
0.485757
0.526181
0.56983
0.616936
0.667745
0.722519
0.781536
0.845096
0.913515
0.987131
1.06631
1.15143
1.2429
1.34119
1.44674
1.56009
1.68177
1.81239
1.95257
2.10303
2.2645
2.43783
2.6239
2.8237
3.03832
3.26896
3.51695
3.78377
4.07106
4.38069
4.71478
5.07566
5.46607
5.88916
6.34847
6.84818
7.39322
7.98934
8.64341
9.36362
10.1599
11.0443
12.0318
13.1405
14.3932
15.8177
17.4469
19.3137
21.4427
23.7392
25.9704
0.0347003
0.0348891
0.0352856
0.0359166
0.0367777
0.0378702
0.0392053
0.0407994
0.0426698
0.044836
0.0473197
0.0501456
0.053341
0.0569358
0.0609631
0.0654593
0.0704641
0.0760206
0.0821757
0.08898
0.0964887
0.104762
0.113864
0.123864
0.134838
0.146864
0.160032
0.174434
0.190168
0.207344
0.226075
0.246483
0.268701
0.29287
0.319136
0.347661
0.378614
0.412179
0.448547
0.487925
0.530531
0.576598
0.626375
0.680126
0.738133
0.800696
0.868134
0.940788
1.01902
1.10322
1.19381
1.29122
1.39594
1.50848
1.62939
1.75926
1.89875
2.04853
2.20938
2.38211
2.56763
2.76692
2.98106
3.21125
3.45883
3.72526
4.01218
4.32145
4.65518
5.01571
5.40574
5.82836
6.28714
6.78622
7.33046
7.92554
8.57821
9.29656
10.0903
10.9713
11.9539
13.0558
14.2986
15.7087
17.3147
19.147
21.2082
23.4134
25.4132
0.024319
0.0244755
0.0247282
0.0251663
0.0257866
0.0265792
0.0275605
0.0287543
0.0301812
0.0318619
0.0338201
0.0360824
0.0386782
0.0416388
0.0449985
0.0487949
0.0530683
0.0578627
0.0632258
0.0692097
0.07587
0.083266
0.0914638
0.100534
0.110551
0.121598
0.133761
0.147133
0.161818
0.177921
0.195559
0.214856
0.235944
0.258964
0.284069
0.311417
0.341182
0.373547
0.408708
0.44687
0.488255
0.533099
0.581651
0.634178
0.690964
0.752311
0.818539
0.889993
0.967038
1.05007
1.13949
1.23576
1.33936
1.45079
1.57062
1.69943
1.83787
1.98665
2.1465
2.31827
2.50284
2.70119
2.91442
3.14372
3.3904
3.65593
3.94194
4.25029
4.58305
4.94256
5.33149
5.75289
6.2103
6.70781
7.25019
7.84302
8.49294
9.20783
9.99717
10.8724
11.8473
12.9388
14.1667
15.5558
17.1284
18.9135
20.8802
22.9786
24.6395
0.0138159
0.0139091
0.0140168
0.0142583
0.0146233
0.0150985
0.0157083
0.0164832
0.0174458
0.0186173
0.0200242
0.0216954
0.0236614
0.0259549
0.0286115
0.0316692
0.0351695
0.0391569
0.0436801
0.0487905
0.0545449
0.0610045
0.0682341
0.076304
0.0852905
0.095276
0.106348
0.118602
0.132138
0.147065
0.163501
0.18157
0.201404
0.223146
0.246951
0.272976
0.301398
0.332401
0.366179
0.402945
0.442919
0.486337
0.533454
0.584535
0.639867
0.699753
0.764514
0.834498
0.910069
0.991621
1.07957
1.17437
1.27649
1.38645
1.5048
1.63214
1.76911
1.9164
2.07477
2.24503
2.42809
2.62491
2.83658
3.06427
3.30929
3.5731
3.85731
4.16375
4.49446
4.85175
5.23824
5.65695
6.11134
6.6054
7.14378
7.73193
8.37628
9.08446
9.86554
10.7304
11.6922
12.7666
13.9713
15.3293
16.8546
18.578
20.4227
22.4093
23.6172
0.00327327
0.00323585
0.00320999
0.00325597
0.00334392
0.00347728
0.00369537
0.00403098
0.00450525
0.0051421
0.00597071
0.00702151
0.00832632
0.00991908
0.0118361
0.0141159
0.0168011
0.0199366
0.0235707
0.0277562
0.0325495
0.0380109
0.0442067
0.0512082
0.0590909
0.067937
0.0778352
0.0888799
0.101173
0.114825
0.12995
0.146676
0.165135
0.185475
0.207844
0.232405
0.259338
0.288823
0.321061
0.35626
0.394645
0.436453
0.48194
0.531373
0.585039
0.643245
0.706313
0.77459
0.848443
0.928265
1.01447
1.10752
1.20788
1.31607
1.43264
1.55819
1.69335
1.83881
1.99533
2.16372
2.34487
2.53974
2.74941
2.97502
3.2179
3.47946
3.76131
4.06524
4.39323
4.74759
5.13088
5.54603
5.99641
6.48593
7.01907
7.60111
8.23823
8.93771
9.70818
10.5599
11.5049
12.5577
13.7333
15.0529
16.5198
18.1703
19.8663
21.7313
22.3848
-0.00723548
-0.00749576
-0.00763054
-0.00777757
-0.00799638
-0.00823431
-0.00843077
-0.00855793
-0.00859774
-0.0085237
-0.00830301
-0.00790333
-0.00729212
-0.00643535
-0.0052956
-0.00383375
-0.00200682
0.000229977
0.00292514
0.0061318
0.00990624
0.0143088
0.0194059
0.0252675
0.0319705
0.0395962
0.0482338
0.0579779
0.0689295
0.0811994
0.0949067
0.110174
0.127135
0.145937
0.166733
0.189687
0.214973
0.242778
0.273301
0.306755
0.343363
0.383365
0.427017
0.474587
0.526364
0.582656
0.643786
0.710103
0.781972
0.859789
0.943972
1.03497
1.13326
1.23936
1.35381
1.47721
1.6102
1.75346
1.90773
2.07383
2.25263
2.44509
2.65226
2.8753
3.11549
3.37423
3.65309
3.95384
4.27843
4.62908
5.00831
5.41898
5.86435
6.34818
6.87482
7.44932
8.07755
8.76643
9.52401
10.3598
11.2847
12.312
13.4532
14.728
16.1264
17.6946
19.218
20.9539
21.0988
-0.0176453
-0.018234
-0.0184387
-0.0187779
-0.0193413
-0.0199842
-0.0206203
-0.0212358
-0.0218185
-0.0223368
-0.0227541
-0.0230376
-0.0231544
-0.0230691
-0.0227449
-0.0221409
-0.0212159
-0.0199246
-0.0182175
-0.0160425
-0.0133447
-0.0100628
-0.00613126
-0.00147987
0.00396705
0.0102913
0.0175811
0.0259317
0.035444
0.0462287
0.0584013
0.0720892
0.087428
0.104562
0.123641
0.144834
0.168318
0.194277
0.222912
0.254435
0.289071
0.327063
0.368664
0.414147
0.4638
0.517931
0.576865
0.640949
0.710552
0.786068
0.867915
0.95654
1.05242
1.15606
1.26803
1.38888
1.51928
1.65988
1.81144
1.97475
2.15067
2.34016
2.54425
2.76406
3.00087
3.25603
3.53111
3.8278
4.14802
4.49392
4.86793
5.27283
5.71176
6.18831
6.70664
7.27155
7.88856
8.56414
9.30572
10.122
11.0225
12.0191
13.1197
14.343
15.663
17.1429
18.4759
20.0925
19.6101
-0.0278987
-0.0289236
-0.0291464
-0.0296825
-0.0306366
-0.0317215
-0.0328234
-0.0339552
-0.0351115
-0.0362534
-0.0373405
-0.0383399
-0.0392188
-0.0399421
-0.0404715
-0.0407667
-0.0407869
-0.0404872
-0.0398175
-0.0387288
-0.0371646
-0.035064
-0.0323635
-0.0289928
-0.024877
-0.0199353
-0.0140782
-0.00721409
0.000760586
0.00995389
0.0204843
0.0324761
0.0460648
0.0613936
0.0786213
0.0979097
0.119433
0.143383
0.169956
0.199369
0.231847
0.267631
0.306977
0.350159
0.397464
0.449202
0.505698
0.567298
0.634373
0.707317
0.786544
0.872504
0.965668
1.06655
1.17568
1.29366
1.4211
1.55869
1.70715
1.86726
2.03989
2.22596
2.42649
2.64259
2.87549
3.12654
3.39722
3.68921
4.00437
4.34477
4.71276
5.111
5.54249
6.01067
6.51945
7.07335
7.67754
8.33797
9.06139
9.85566
10.7287
11.6911
12.7465
13.9136
15.1478
16.5354
17.6645
19.1647
18.0462
-0.0379454
-0.0395073
-0.0396846
-0.0404303
-0.0418295
-0.0433947
-0.0449904
-0.0466688
-0.0484314
-0.0502299
-0.0520196
-0.0537692
-0.0554456
-0.0570139
-0.0584356
-0.0596715
-0.0606807
-0.0614187
-0.0618381
-0.0618877
-0.0615146
-0.0606574
-0.0592537
-0.0572356
-0.0545275
-0.051049
-0.0467141
-0.0414288
-0.0350918
-0.0275964
-0.0188237
-0.00864866
0.00306287
0.0164552
0.0316832
0.0489115
0.0683164
0.0900879
0.114424
0.14154
0.171664
0.205035
0.241912
0.282569
0.327293
0.376394
0.430197
0.489051
0.553323
0.623407
0.699719
0.782701
0.872829
0.970605
1.07657
1.19131
1.31543
1.4496
1.59455
1.75105
1.91993
2.10211
2.29859
2.51045
2.73889
2.98522
3.2509
3.53752
3.8469
4.18102
4.54214
4.93278
5.35582
5.81449
6.31247
6.85396
7.44372
8.08718
8.79032
9.56008
10.4028
11.3277
12.3334
13.4399
14.5813
15.8722
16.7869
18.1705
16.6172
-0.0477407
-0.0499236
-0.049983
-0.0509622
-0.0528668
-0.0549514
-0.0570699
-0.0593278
-0.0617319
-0.0642203
-0.0667462
-0.0692795
-0.071789
-0.0742396
-0.076592
-0.0788095
-0.0808503
-0.0826715
-0.0842285
-0.0854701
-0.0863439
-0.0867907
-0.0867509
-0.0861549
-0.0849295
-0.082996
-0.0802693
-0.0766582
-0.0720588
-0.0663677
-0.0594654