/*--------------------------------*- C++ -*----------------------------------*\
  =========                 |
  \\      /  F ield         | OpenFOAM: The Open Source CFD Toolbox
   \\    /   O peration     | Website:  https://openfoam.org
    \\  /    A nd           | Version:  11
     \\/     M anipulation  |
\*---------------------------------------------------------------------------*/
FoamFile
{
    format      ascii;
    class       volScalarField;
    location    "300";
    object      p;
}
// * * * * * * * * * * * * * * * * * * * * * * * * * * * * * * * * * * * * * //

dimensions      [0 2 -2 0 0 0 0];

internalField   nonuniform List<scalar> 
31595
(
12.5197
8.47728
9.33826
9.73747
10.3357
10.6399
11.2222
11.7105
12.2716
12.8291
13.4263
14.0384
14.68
15.3451
16.0382
16.7585
17.5081
18.2876
19.0983
19.9413
20.8175
21.7283
22.6745
23.6573
24.6779
25.7372
26.8364
27.9767
29.1592
30.3849
31.6551
32.9711
34.3341
35.7456
37.207
38.7197
40.2856
41.9063
43.5839
45.3203
47.1179
48.9792
50.9067
52.9034
54.9724
57.1171
59.3409
61.6479
64.0422
66.5283
69.1109
71.7952
74.5866
77.4909
80.5145
83.6639
86.9463
90.3693
93.9409
97.67
101.566
105.639
109.899
114.358
119.029
123.925
129.06
134.451
140.113
146.066
152.329
158.922
165.871
173.198
180.93
189.095
197.722
206.841
216.48
226.666
237.418
248.746
260.634
273.028
285.819
298.721
311.445
322.649
332.689
10.408
9.08923
8.81949
9.62587
10.1474
10.5478
11.06
11.5822
12.1188
12.6751
13.2565
13.8597
14.4871
15.1396
15.8184
16.5244
17.2588
18.0227
18.817
19.6431
20.5019
21.3945
22.322
23.2856
24.2862
25.3252
26.4036
27.5224
28.683
29.8865
31.1343
32.4276
33.7676
35.1559
36.5941
38.0837
39.6266
41.2245
42.8793
44.5934
46.369
48.2088
50.1153
52.0915
54.1407
56.2661
58.4714
60.7607
63.138
65.6079
68.1753
70.8453
73.6233
76.5154
79.5278
82.6673
85.9411
89.3569
92.9229
96.6481
100.542
104.615
108.878
113.342
118.021
122.929
128.08
133.49
139.178
145.161
151.461
158.101
165.103
172.495
180.304
188.56
197.294
206.539
216.326
226.686
237.642
249.207
261.368
274.073
287.204
300.471
313.52
324.993
334.856
9.38937
9.0405
8.63957
9.41899
9.9891
10.4128
10.903
11.4254
11.9528
12.499
13.0677
13.6585
14.2722
14.9104
15.5742
16.2646
16.9828
17.7299
18.5069
19.3149
20.1551
21.0285
21.9362
22.8794
23.859
24.8764
25.9326
27.0288
28.1663
29.3463
30.57
31.8389
33.1544
34.5179
35.9312
37.3957
38.9134
40.4861
42.116
43.8052
45.5562
47.3716
49.254
51.2064
53.2322
55.3347
57.5176
59.7848
62.1407
64.5898
67.1368
69.7871
72.5463
75.4202
78.4152
81.5382
84.7965
88.1979
91.7506
95.464
99.3474
103.411
107.667
112.127
116.804
121.713
126.867
132.286
137.985
143.986
150.31
156.98
164.021
171.461
179.33
187.658
196.482
205.834
215.751
226.267
237.409
249.194
261.613
274.621
288.09
301.733
315.12
326.915
336.594
8.9744
8.90364
8.52775
9.23002
9.82865
10.2597
10.736
11.2488
11.7673
12.301
12.8562
13.433
14.0318
14.6545
15.3021
15.9759
16.6768
17.4059
18.1644
18.9534
19.7738
20.6268
21.5136
22.4351
23.3926
24.3872
25.42
26.4924
27.6055
28.7605
29.9589
31.2021
32.4915
33.8286
35.2152
36.653
38.1437
39.6894
41.2921
42.9543
44.6783
46.4667
48.3224
50.2483
52.2476
54.324
56.4811
58.7228
61.0535
63.4778
66.0005
68.6268
71.3625
74.2134
77.1859
80.2871
83.5241
86.9051
90.4384
94.1331
97.9993
102.047
106.288
110.735
115.401
120.301
125.45
130.865
136.566
142.572
148.906
155.592
162.657
170.129
178.04
186.424
195.316
204.756
214.781
225.429
236.733
248.715
261.372
274.664
288.458
302.477
316.213
328.365
337.866
8.72686
8.79977
8.43606
9.06655
9.66736
10.0988
10.5588
11.0577
11.5645
12.0841
12.6242
13.1854
13.7683
14.3743
15.0046
15.6606
16.3431
17.0533
17.7922
18.5609
19.3605
20.1921
21.0567
21.9556
22.8898
23.8604
24.8687
25.916
27.0033
28.1321
29.3039
30.5198
31.7816
33.0909
34.4491
35.8582
37.3201
38.8368
40.4104
42.0433
43.7379
45.4969
47.3232
49.2198
51.1898
53.237
55.365
57.5777
59.8796
62.2753
64.7695
67.3676
70.0753
72.8986
75.8439
78.9182
82.1289
85.4839
88.9918
92.662
96.5043
100.529
104.749
109.176
113.823
118.706
123.84
129.244
134.936
140.937
147.272
153.963
161.04
168.533
176.473
184.898
193.846
203.358
213.475
224.24
235.691
247.855
260.734
274.295
288.405
302.795
316.885
329.429
338.651
8.56354
8.72788
8.36029
8.91853
9.50561
9.9304
10.3712
10.8526
11.3446
11.8484
12.3718
12.9161
13.4816
14.0697
14.6817
15.3187
15.9817
16.6718
17.3901
18.1375
18.9152
19.7243
20.5657
21.4407
22.3503
23.2958
24.2783
25.2991
26.3594
27.4607
28.6043
29.7916
31.0243
32.3039
33.6321
35.0109
36.442
37.9276
39.4699
41.0712
42.734
44.461
46.2552
48.1195
50.0572
52.0719
54.1674
56.3477
58.617
60.98
63.4416
66.0073
68.6824
71.4732
74.3861
77.4282
80.6067
83.9299
87.4064
91.0453
94.8568
98.8519
103.042
107.44
112.06
116.917
122.028
127.409
133.082
139.067
145.389
152.073
159.148
166.645
174.599
183.048
192.032
201.595
211.783
222.642
234.214
246.535
259.611
273.418
287.821
302.565
317.013
329.993
338.776
8.42518
8.66108
8.29143
8.77733
9.34045
9.75349
10.1728
10.6336
11.1082
11.5944
12.0995
12.6254
13.1723
13.7414
14.3339
14.9509
15.5933
16.2623
16.9588
17.6839
18.4386
19.2239
20.041
20.8909
21.7748
22.6939
23.6493
24.6423
25.6742
26.7465
27.8603
29.0175
30.2193
31.4675
32.7639
34.1102
35.5085
36.9608
38.4694
40.0366
41.665
43.3572
45.1163
46.9452
48.8473
50.826
52.8853
55.029
57.2615
59.5875
62.0119
64.54
67.1774
69.9302
72.805
75.8086
78.9485
82.2329
85.6704
89.2704
93.043
96.9992
101.151
105.511
110.093
114.912
119.986
125.333
130.972
136.925
143.218
149.876
156.929
164.41
172.354
180.801
189.793
199.378
209.604
220.521
232.177
244.612
257.841
271.849
286.504
301.563
316.346
329.643
338.289
8.29214
8.58488
8.22063
8.63622
9.16824
9.56588
9.96214
10.4
10.8551
11.3221
11.8076
12.3138
12.841
13.3899
13.9617
14.5576
15.1785
15.8253
16.499
17.2006
17.9312
18.6917
19.4833
20.3069
21.1639
22.0553
22.9823
23.9462
24.9483
25.99
27.0727
28.1979
29.3672
30.5822
31.8448
33.1567
34.52
35.9368
37.4093
38.94
40.5313
42.186
43.9069
45.6973
47.5603
49.4996
51.5188
53.6221
55.8138
58.0983
60.4808
62.9664
65.5608
68.2701
71.1007
74.0598
77.1545
80.3933
83.7845
87.3377
91.063
94.9713
99.0746
103.386
107.919
112.69
117.715
123.012
128.603
134.509
140.755
147.369
154.38
161.822
169.732
178.15
187.122
196.695
206.922
217.857
229.551
242.052
255.381
269.532
284.376
299.689
314.733
328.156
337.06
8.15209
8.4883
8.13893
8.48921
8.98543
9.36515
9.73775
10.1512
10.585
11.0315
11.4962
11.9816
12.4879
13.0156
13.5659
14.1398
14.738
15.3616
16.0115
16.6887
17.3941
18.1288
18.8937
19.69
20.5189
21.3814
22.2788
23.2123
24.1832
25.193
26.243
27.3347
28.4698
29.65
30.877
32.1527
33.479
34.8582
36.2925
37.7843
39.336
40.9506
42.6308
44.3797
46.2007
48.0973
50.0732
52.1325
54.2795
56.5188
58.8553
61.2942
63.8411
66.5021
69.2838
72.193
75.237
78.4242
81.7631
85.2631
88.9343
92.7877
96.8351
101.09
105.566
110.278
115.244
120.483
126.014
131.861
138.048
144.603
151.556
158.943
166.799
175.169
184.097
193.634
203.834
214.755
226.452
238.978
252.358
266.597
281.561
297.038
312.19
325.816
334.532
7.99944
8.36597
8.03988
8.33144
8.78903
9.14904
9.49796
9.88622
10.2973
10.7224
11.1653
11.629
12.1134
12.619
13.1468
13.6976
14.2724
14.8718
15.497
16.1486
16.8279
17.5356
18.2729
19.0407
19.8403
20.6726
21.5391
22.4408
23.3792
24.3556
25.3713
26.4281
27.5274
28.6709
29.8604
31.0979
32.3853
33.7248
35.1185
36.5689
38.0786
39.6503
41.2869
42.9914
44.7672
46.6178
48.547
50.5586
52.657
54.8469
57.133
59.5206
62.0152
64.623
67.3502
70.2039
73.1914
76.3208
79.6008
83.0404
86.6501
90.4405
94.4237
98.6125
103.021
107.666
112.562
117.73
123.189
128.962
135.074
141.554
148.432
155.743
163.526
171.822
180.68
190.15
200.29
211.159
222.816
235.318
248.696
262.958
277.968
293.519
308.647
322.548
330.492
7.83073
8.21484
7.91865
8.15892
8.57661
8.91564
9.24126
9.60401
9.99166
10.3943
10.8149
11.2559
11.7177
12.2004
12.7048
13.2317
13.782
14.3564
14.9558
15.581
16.233
16.9127
17.6212
18.3594
19.1284
19.9294
20.7636
21.6322
22.5366
23.478
24.4579
25.4779
26.5396
27.6447
28.7948
29.992
31.2381
32.5355
33.8862
35.2927
36.7576
38.2835
39.8733
41.5302
43.2573
45.0582
46.9366
48.8965
50.9421
53.0778
55.3088
57.6399
60.0768
62.6254
65.2921
68.0838
71.0077
74.072
77.285
80.6559
84.195
87.9129
91.8215
95.9337
100.263
104.826
109.639
114.72
120.09
125.771
131.79
138.173
144.952
152.161
159.839
168.029
176.778
186.141
196.173
206.936
218.492
230.901
244.195
258.393
273.348
288.868
303.963
317.948
324.825
7.6443
8.03392
7.77216
7.96865
8.34633
8.66352
8.96644
9.30386
9.66751
10.0473
10.4449
10.8627
11.3011
11.7601
12.2404
12.7427
13.2677
13.8161
14.3888
14.9866
15.6104
16.2611
16.9396
17.647
18.3843
19.1527
19.9533
20.7874
21.6563
22.5612
23.5038
24.4854
25.5077
26.5724
27.6812
28.8359
30.0387
31.2916
32.5969
33.9569
35.3742
36.8515
38.3916
39.9976
41.6726
43.4203
45.2442
47.1483
49.1367
51.214
53.3849
55.6545
58.0284
60.5122
63.1125
65.8358
68.6894
71.6813
74.8196
78.1138
81.5737
85.2097
89.0336
93.0582
97.2974
101.766
106.481
111.462
116.726
122.299
128.204
134.468
141.124
148.204
155.748
163.799
172.403
181.614
191.489
202.089
213.476
225.712
238.828
252.847
267.6
282.964
297.793
311.755
317.055
7.43927
7.82329
7.59845
7.75844
8.09689
8.39168
8.67263
8.98521
9.32466
9.68124
10.0555
10.4497
10.8642
11.2989
11.7543
12.2313
12.7303
13.252
13.7972
14.3667
14.9613
15.5819
16.2295
16.905
17.6095
18.3442
19.11
19.9083
20.7405
21.6076
22.5114
23.4531
24.4344
25.457
26.5227
27.6333
28.7907
29.9972
31.2549
32.5662
33.9336
35.3598
36.8475
38.3999
40.0201
41.7115
43.4778
45.3229
47.2509
49.266
51.3732
53.5775
55.8841
58.299
60.8281
63.4784
66.2568
69.1711
72.2295
75.441
78.8153
82.3632
86.0958
90.0255
94.1664
98.5333
103.142
108.012
113.161
118.614
124.393
130.526
137.043
143.979
151.37
159.26
167.694
176.726
186.41
196.808
207.978
219.981
232.843
246.581
261.015
276.073
290.232
304.055
306.542
7.21508
7.58374
7.39654
7.52673
7.82743
8.09951
8.35924
8.64764
8.96293
9.2961
9.64681
10.017
10.4071
10.817
11.2471
11.6979
12.1701
12.6643
13.1812
13.7215
14.286
14.8756
15.4912
16.1338
16.8043
17.5039
18.2337
18.9949
19.7887
20.6165
21.4799
22.38
23.3185
24.2973
25.3178
26.3821
27.4921
28.6498
29.8575
31.1175
32.4322
33.8044
35.2368
36.7323
38.2942
39.9259
41.6307
43.4127
45.2759
47.2245
49.2633
51.3971
53.6312
55.9715
58.4237
60.9945
63.6909
66.5204
69.4912
72.612
75.8925
79.3426
82.9739
86.7983
90.8292
95.0816
99.5709
104.315
109.334
114.649
120.283
126.264
132.62
139.385
146.595
154.292
162.521
171.332
180.779
190.921
201.813
213.512
226.035
239.406
253.415
267.998
281.208
294.675
294.071
6.97151
7.31653
7.16617
7.2726
7.53748
7.78675
8.02597
8.29097
8.58235
8.89204
9.21908
9.56506
9.93037
10.315
10.7191
11.1433
11.5881
12.054
12.5417
13.052
13.5855
14.1431
14.7256
15.3341
15.9695
16.6329
17.3254
18.0481
18.8023
19.5892
20.4104
21.2673
22.1614
23.0943
24.0678
25.0837
26.1439
27.2506
28.4058
29.6118
30.8712
32.1865
33.5604
34.9959
36.4961
38.0643
39.704
41.4189
43.213
45.0906
47.0561
49.1144
51.2707
53.5305
55.8997
58.3847
60.9923
63.7298
66.6052
69.6269
72.8041
76.1472
79.6669
83.3747
87.2838
91.4084
95.7638
100.368
105.238
110.396
115.864
121.669
127.838
134.403
141.4
148.866
156.846
165.387
174.539
184.358
194.891
206.191
218.265
231.14
244.495
258.416
270.368
283.354
278.451
6.70853
7.02328
6.90767
6.99558
7.22696
7.45354
7.67291
7.91536
8.18318
8.46947
8.77282
9.09442
9.43472
9.79366
10.1714
10.5684
10.9851
11.4221
11.8799
12.3593
12.8609
13.3856
13.9342
14.5076
15.1068
15.7328
16.3867
17.0695
17.7828
18.5275
19.3052
20.1171
20.9651
21.8505
22.7751
23.7407
24.7492
25.8027
26.9032
28.053
29.2546
30.5104
31.8231
33.1958
34.6313
36.1328
37.7039
39.3482
41.0697
42.8723
44.7605
46.7391
48.8131
50.9878
53.2689
55.6628
58.176
60.8156
63.5892
66.5053
69.5724
72.8009
76.2007
79.7832
83.5613
87.5481
91.7589
96.2101
100.919
105.906
111.194
116.806
122.768
129.112
135.869
143.076
150.774
159.005
167.815
177.252
187.354
198.17
209.687
221.905
234.392
247.464
257.698
270.055
258.078
6.42608
6.70572
6.62178
6.6956
6.89602
7.10024
7.30035
7.52108
7.76579
8.02884
8.30849
8.60564
8.92072
9.25365
9.60458
9.97389
10.362
10.7694
11.1966
11.6444
12.1133
12.6042
13.1178
13.6552
14.217
14.8044
15.4185
16.0603
16.7312
17.4323
18.1649
18.9305
19.7306
20.5667
21.4406
22.354
23.3087
24.3068
25.3503
26.4415
27.5827
28.7763
30.0252
31.3319
32.6996
34.1314
35.6306
37.2007
38.8456
40.5693
42.376
44.2705
46.2574
48.3422
50.5303
52.8276
55.2405
57.7761
60.4418
63.2452
66.1953
69.3011
72.5729
76.0215
79.6591
83.4979
87.5532
91.84
96.3752
101.178
106.268
111.67
117.407
123.508
130.002
136.924
144.308
152.194
160.618
169.624
179.242
189.501
200.341
211.766
223.207
235.228
243.168
254.636
234.2
6.12424
6.36572
6.30963
6.37296
6.5451
6.72741
6.90878
7.10859
7.33071
7.57069
7.82673
8.09937
8.38904
8.6957
9.01943
9.36057
9.71946
10.0967
10.4926
10.9079
11.3433
11.7995
12.2772
12.7774
13.3008
13.8485
14.4215
15.021
15.6481
16.304
16.99
17.7076
18.4581
19.2431
20.0642
20.9233
21.822
22.7624
23.7465
24.7765
25.8546
26.9833
28.1651
29.4028
30.6993
32.0577
33.4811
34.9731
36.5373
38.1776
39.8982
41.7034
43.5981
45.5872
47.6761
49.8705
52.1766
54.6009
57.1507
59.8334
62.6573
65.6313
68.765
72.0685
75.5535
79.232
83.1177
87.2249
91.5697
96.1694
101.043
106.212
111.699
117.529
123.73
130.331
137.363
144.857
152.848
161.367
170.422
180.02
190.06
200.565
210.737
221.482
226.502
236.886
207.118
5.80314
6.00521
5.97267
6.02828
6.17485
6.33594
6.49904
6.67867
6.87874
7.0959
7.3284
7.57655
7.84069
8.12081
8.41698
8.72951
9.05874
9.4051
9.76912
10.1513
10.5524
10.9729
11.4138
11.8758
12.3598
12.8668
13.3976
13.9535
14.5355
15.1448
15.7828
16.4507
17.1499
17.8821
18.6488
19.4516
20.2923
21.1729
22.0954
23.0618
24.0743
25.1354
26.2475
27.4133
28.6356
29.9174
31.2617
32.6721
34.1518
35.7048
37.3351
39.0469
40.8447
42.7334
44.718
46.8041
48.9975
51.3047
53.7323
56.2872
58.9777
61.8121
64.7992
67.9487
71.2712
74.7783
78.4828
82.3976
86.5375
90.9187
95.5582
100.475
105.69
111.225
117.102
123.348
129.988
137.05
144.553
152.514
160.917
169.761
178.892
188.351
197.026
206.338
207.795
217.1
172.988
5.46295
5.62613
5.61258
5.66247
5.78615
5.9268
6.07207
6.23219
6.41074
6.60534
6.81442
7.03808
7.27658
7.52995
7.79828
8.08182
8.38089
8.6959
9.02733
9.37574
9.7417
10.1259
10.529
10.952
11.3954
11.8605
12.348
12.859
13.3947
13.9561
14.5445
15.1613
15.8078
16.4853
17.1957
17.9405
18.7213
19.5401
20.3987
21.2993
22.2439
23.2349
24.2746
25.3658
26.511
27.7131
28.9752
30.3005
31.6924
33.1544
34.6905
36.3049
38.0016
39.7853
41.6611
43.634
45.7096
47.8941
50.1937
52.6151
55.1659
57.8537
60.6868
63.6748
66.8271
70.1543
73.668
77.3804
81.3044
85.4552
89.8477
94.4979
99.4239
104.645
110.181
116.05
122.272
128.862
135.828
143.172
150.863
158.879
166.99
175.266
182.197
189.892
187.033
195.191
133.245
5.10406
5.23042
5.23128
5.2767
5.38005
5.50119
5.62902
5.77018
5.9277
6.1
6.28577
6.48492
6.69766
6.92408
7.16424
7.41838
7.68681
7.96988
8.26811
8.58201
8.91209
9.25902
9.62359
10.0064
10.4084
10.8304
11.2734
11.7383
12.2262
12.7382
13.2757
13.8396
14.4316
15.0529
15.705
16.3896
17.1084
17.8631
18.6555
19.4877
20.3617
21.2798
22.2443
23.2577
24.3225
25.4415
26.6176
27.854
29.1538
30.5207
31.958
33.47
35.0605
36.7339
38.4949
40.3485
42.2999
44.3547
46.5189
48.7988
51.2012
53.7337
56.4036
59.2196
62.1904
65.326
68.6364
72.1324
75.8258
79.7294
83.8568
88.2216
92.8386
97.7232
102.889
108.35
114.115
120.189
126.57
133.244
140.15
147.243
154.197
161.132
166.019
171.858
163.772
170.689
91.6748
4.72694
4.82
4.83087
4.87242
4.9578
5.06046
5.17121
5.2939
5.43086
5.58113
5.74365
5.91831
6.10521
6.30446
6.51617
6.74054
6.97788
7.22854
7.49295
7.77168
8.06516
8.37408
8.69915
9.04102
9.40049
9.77842
10.1757
10.5933
11.0322
11.4936
11.9786
12.4883
13.0241
13.5875
14.1798
14.8024
15.4572
16.1457
16.8698
17.6313
18.4324
19.2751
20.1616
21.0944
22.0758
23.1087
24.1957
25.3398
26.544
27.8118
29.1465
30.5519
32.0317
33.5902
35.2316
36.9607
38.7824
40.7017
42.7244
44.8561
47.1032
49.4725
51.9707
54.6054
57.3848
60.3175
63.4126
66.6797
70.1288
73.7709
77.617
81.6776
85.964
90.4866
95.2531
100.272
105.545
111.068
116.822
122.777
128.837
134.938
140.638
146.146
148.763
152.716
138.587
144.662
40.3692
4.3324
4.3968
4.41362
4.45133
4.52083
4.6061
4.70011
4.80471
4.9215
5.04996
5.18935
5.33947
5.50041
5.67231
5.85529
6.04953
6.25533
6.47306
6.7031
6.946
7.20221
7.47235
7.75706
8.05707
8.37306
8.70589
9.05643
9.42558
9.81429
10.2237
10.6548
11.1089
11.5871
12.0908
12.6214
13.1803
13.7691
14.3895
15.0431
15.7319
16.4577
17.2225
18.0285
18.878
19.7734
20.7172
21.7119
22.7605
23.8658
25.031
26.2593
27.5543
28.9195
30.3589
31.8763
33.4762
35.1631
36.942
38.8177
40.7956
42.8815
45.0813
47.4017
49.8488
52.43
55.1526
58.0245
61.0534
64.2479
67.6167
71.1674
74.9077
78.8457
82.9873
87.3355
91.8904
96.6452
101.583
106.669
111.852
117.001
122.032
126.364
130.337
130.421
132.395
111.32
116.704
-16.0924
3.92152
3.96273
3.98191
4.01533
4.07074
4.13967
4.21728
4.30408
4.40099
4.50785
4.62413
4.74966
4.88452
5.02884
5.18277
5.34649
5.52029
5.70456
5.89965
6.10605
6.32423
6.5548
6.79835
7.05557
7.32712
7.6138
7.91643
8.2359
8.57313
8.92913
9.30497
9.70176
10.1207
10.5631
11.0302
11.5234
12.0442
12.5943
13.1752
13.7886
14.4365
15.1208
15.8435
16.6068
17.4129
18.2642
19.1632
20.1125
21.1149
22.1733
23.2908
24.4708
25.7163
27.0312
28.4191
29.8841
31.4302
33.0619
34.7837
36.6005
38.5174
40.5397
42.6728
44.9225
47.2952
49.7965
52.433
55.2107
58.1362
61.2152
64.4537
67.8562
71.4259
75.164
79.0674
83.128
87.3283
91.6392
96.0051
100.356
104.514
108.383
111.202
113.496
110.703
110.548
81.4487
86.3183
-72.1658
3.49579
3.5197
3.53826
3.5666
3.60935
3.66297
3.72449
3.79367
3.87095
3.95634
4.04953
4.1504
4.25902
4.37554
4.50013
4.63297
4.77438
4.92468
5.08427
5.25359
5.43312
5.62337
5.82493
6.03847
6.26467
6.5042
6.7579
7.02662
7.31119
7.61259
7.9318
8.26991
8.62811
9.0075
9.4095
9.83528
10.2862
10.764
11.2701
11.8061
12.3739
12.9752
13.612
14.2863
15.0003
15.7562
16.5563
17.4031
18.2993
19.2475
20.2505
21.3115
22.4334
23.6196
24.8735
26.1988
27.599
29.0782
30.6406
32.2901
34.0313
35.8688
37.8072
39.8512
42.0059
44.2763
46.6671
49.1827
51.8278
54.606
57.52
60.5706
63.7575
67.0761
70.5168
74.0632
77.6873
81.3472
84.967
88.4571
91.588
94.2608
95.502
96.1076
90.2396
88.1634
50.2607
55.5961
-141.528
3.05719
3.06961
3.08519
3.10744
3.1386
3.17781
3.2235
3.27517
3.33296
3.39696
3.46702
3.54312
3.62532
3.7138
3.80872
3.91033
4.0189
4.13476
4.25828
4.38988
4.53004
4.67927
4.83811
5.00716
5.18702
5.37847
5.58219
5.79897
6.02968
6.27522
6.53654
6.81461
7.11057
7.42547
7.76055
8.11711
8.4965
8.90002
9.32929
9.78579
10.2712
10.7872
11.3357
11.9185
12.5377
13.1953
13.8936
14.6348
15.4215
16.2559
17.1409
18.079
19.0732
20.1265
21.242
22.4228
23.6722
24.9937
26.3909
27.8674
29.427
31.0733
32.8103
34.6418
36.5714
38.6028
40.7393
42.9836
45.3376
47.8026
50.3785
53.0621
55.8486
58.7275
61.6827
64.689
67.7067
70.6795
73.5097
76.0875
78.1246
79.5265
79.066
77.8827
68.6382
64.5513
16.934
22.6118
-207.708
2.60828
2.6144
2.62528
2.64036
2.6606
2.68613
2.7162
2.75038
2.78871
2.83131
2.87818
2.92933
2.9849
3.04506
3.11
3.17996
3.25522
3.33614
3.42304
3.51633
3.61646
3.7239
3.83918
3.96286
4.09556
4.2379
4.39058
4.55437
4.73003
4.91839
5.12036
5.33689
5.56902
5.81786
6.08438
6.36988
6.67554
7.00283
7.35298
7.72757
8.12811
8.55622
9.01361
9.50198
10.0233
10.5794
11.1724
11.8044
12.4776
13.1942
13.9567
14.7675
15.6293
16.5446
17.5161
18.5468
19.6393
20.7968
22.0222
23.3185
24.6887
26.1358
27.6627
29.2721
30.9665
32.7482
34.6185
36.5783
38.6276
40.7648
42.9859
45.2843
47.6504
50.0676
52.5122
54.9497
57.3278
59.5753
61.5701
63.1826
64.0562
64.1148
61.8237
58.7804
45.8269
39.8052
-18.4725
-11.8405
-273.028
2.15226
2.15595
2.16099
2.168
2.17768
2.19002
2.20458
2.22122
2.24004
2.26118
2.28473
2.31077
2.33946
2.371
2.40562
2.44356
2.48511
2.53059
2.58034
2.63476
2.69423
2.75923
2.83025
2.90779
2.99241
3.08475
3.18545
3.29517
3.41467
3.54473
3.68618
3.83987
4.00683
4.18794
4.38437
4.59713
4.82746
5.07659
5.34578
5.63643
5.94997
6.2879
6.6518
7.04328
7.46408
7.916
8.40087
8.92064
9.47732
10.073
10.7097
11.3898
12.1155
12.889
13.7129
14.5893
15.5209
16.51
17.5591
18.6704
19.8464
21.089
22.4003
23.782
25.2352
26.7608
28.3586
30.0273
31.7646
33.5664
35.4254
37.3312
39.2687
41.2162
43.142
45.0025
46.7329
48.2478
49.3999
50.0437
49.7475
48.4789
44.3409
39.5438
22.7841
15.3352
-53.9784
-44.9338
-357.103
1.69287
1.69606
1.6946
1.69299
1.69224
1.69154
1.69057
1.68955
1.68872
1.68825
1.68826
1.68892
1.69045
1.69306
1.69699
1.7025
1.70988
1.71943
1.73148
1.7464
1.76459
1.78645
1.81243
1.84304
1.87879
1.9202
1.96788
2.02248
2.08467
2.15521
2.23482
2.32431
2.42454
2.53654
2.66113
2.79951
2.95259
3.12164
3.30775
3.51232
3.73656
3.9819
4.24977
4.54167
4.85917
5.2039
5.57753
5.9818
6.41852
6.8895
7.39662
7.94186
8.52714
9.15438
9.82564
10.5429
11.308
12.1229
12.9895
13.9094
14.884
15.9148
17.0027
18.148
19.3509
20.6104
21.9246
23.2905
24.7031
26.1548
27.6355
29.1305
30.6191
32.0731
33.4534
34.7061
35.7525
36.4922
36.7495
36.3632
34.8144
32.128
25.9869
19.3073
-1.61141
-10.7459
-91.8178
-81.5472
-419.27
1.23411
1.23658
1.22839
1.21806
1.20675
1.19288
1.1762
1.15732
1.13664
1.11432
1.09054
1.06555
1.03959
1.01292
0.98578
0.958445
0.931193
0.904328
0.878164
0.853045
0.829328
0.807371
0.78763
0.770493
0.75648
0.746078
0.739823
0.738295
0.742118
0.751893
0.76841
0.792384
0.824609
0.865846
0.91713
0.979261
1.05338
1.14035
1.24149
1.35774
1.4904
1.64074
1.81004
1.99968
2.21104
2.44561
2.70486
2.99031
3.30356
3.64624
4.0199
4.42622
4.86681
5.3433
5.85728
6.41028
7.00375
7.63898
8.31728
9.03952
9.80654
10.6186
11.4756
12.3769
13.3211
14.3058
15.3272
16.3801
17.4569
18.5472
19.637
20.7074
21.7324
22.6773
23.4944
24.1199
24.4611
24.4026
23.7384
22.296
19.4567
15.3354
7.11721
-1.38832
-26.6681
-37.1277
-130.134
-117.831
-484.43
0.779675
0.779445
0.764794
0.745949
0.723722
0.696219
0.663536
0.626562
0.585734
0.541244
0.493356
0.442381
0.388605
0.332285
0.273695
0.213103
0.150789
0.0870493
0.0221738
-0.043547
-0.109771
-0.176123
-0.242275
-0.307803
-0.37232
-0.435364
-0.496424
-0.555021
-0.610618
-0.662566
-0.710274
-0.753096
-0.790283
-0.821002
-0.844601
-0.860141
-0.866754
-0.863428
-0.849287
-0.823201
-0.784098
-0.730872
-0.662348
-0.577301
-0.474499
-0.352651
-0.210458
-0.0465613
0.140367
0.351693
0.588779
0.852922
1.14549
1.46773
1.82079
2.20578
2.62363
3.07518
3.56098
4.08136
4.63606
5.2247
5.84612
6.49848
7.17902
7.88358
8.60677
9.34102
10.0764
10.7997
11.4931
12.1329
12.6887
13.1193
13.3685
13.3627
12.9955
12.1379
10.5528
8.06351
3.94075
-1.57246
-11.8591
-22.0221
-51.6573
-62.8967
-167.515
-152.276
-564.774
0.332807
0.326637
0.306335
0.279322
0.245483
0.20367
0.154586
0.0991607
0.0377943
-0.0292508
-0.101622
-0.178965
-0.260964
-0.347333
-0.437791
-0.532065
-0.629898
-0.731019
-0.835156
-0.942002
-1.05129
-1.16273
-1.27598
-1.3907
-1.5065
-1.62303
-1.73986
-1.85659
-1.97261
-2.08748
-2.20068
-2.31154
-2.41946
-2.52386
-2.6239
-2.71883
-2.80792
-2.8903
-2.96506
-3.03134
-3.08816
-3.13449
-3.16935
-3.19167
-3.20036
-3.19431
-3.1724
-3.13352
-3.07652
-3.00037
-2.90392
-2.78616
-2.64615
-2.48298
-2.29589
-2.08422
-1.84757
-1.58573
-1.29879
-0.98724
-0.651932
-0.294381
0.083195
0.47765
0.884723
1.29881
1.71257
2.11608
2.49668
2.83783
3.11817
3.30999
3.37618
3.26918
2.92402
2.25739
1.14741
-0.548682
-3.10301
-6.69306
-12.175
-19.1506
-31.6457
-43.5527
-77.8061
-90.0944
-206.462
-189.864
-614.986
-0.103708
-0.119781
-0.144365
-0.179185
-0.225616
-0.282604
-0.348578
-0.422862
-0.505214
-0.595281
-0.692566
-0.796671
-0.907284
-1.02411
-1.14684
-1.27523
-1.40902
-1.54797
-1.6918
-1.84031
-1.99323
-2.15028
-2.31121
-2.47575
-2.6436
-2.81439
-2.98778
-3.16339
-3.34085
-3.5197
-3.69939
-3.87953
-4.05953
-4.23876
-4.41666
-4.59252
-4.76567
-4.93546
-5.10108
-5.26162
-5.41637
-5.56447
-5.70497
-5.83703
-5.95968
-6.07204
-6.17322
-6.26225
-6.33832
-6.40047
-6.44804
-6.4802
-6.49637
-6.49607
-6.47889
-6.44474
-6.39367
-6.32617
-6.24288
-6.14497
-6.03435
-5.91343
-5.78544
-5.65496
-5.52735
-5.4102
-5.3128
-5.24734
-5.22909
-5.27761
-5.41824
-5.68355
-6.11524
-6.76856
-7.7164
-9.05233
-10.9136
-13.4546
-16.9845
-21.6723
-28.518
-36.9165
-51.6297
-65.1151
-103.985
-116.857
-244.15
-225.849
-671.219
-0.527529
-0.557684
-0.58463
-0.627056
-0.687397
-0.76055
-0.843939
-0.937572
-1.04148
-1.15507
-1.27772
-1.40904
-1.5487
-1.69639
-1.85182
-2.01475
-2.18491
-2.36211
-2.54613
-2.73675
-2.93377
-3.13703
-3.34628
-3.56126
-3.78176
-4.00753
-4.23826
-4.47369
-4.71347
-4.95717
-5.20452
-5.45505
-5.70828
-5.96366
-6.22085
-6.4792
-6.73797
-6.99684
-7.25493
-7.51165
-7.76632
-8.01822
-8.26655
-8.51068
-8.74978
-8.98308
-9.20997
-9.42966
-9.64163
-9.84516
-10.0398
-10.2252
-10.4011
-10.5671
-10.7236
-10.8708
-11.0093
-11.1401
-11.2647
-11.385
-11.5037
-11.624
-11.7505
-11.8888
-12.0461
-12.2313
-12.4558
-12.7341
-13.0838
-13.5279
-14.0953
-14.8232
-15.7595
-16.9646
-18.5204
-20.5299
-23.1455
-26.5317
-31.0367
-36.8103
-45.0129
-54.7839
-71.699
-86.6036
-129.974
-143.141
-280.288
-260.699
-729.921
-0.936697
-0.984901
-1.01184
-1.06194
-1.13779
-1.22816
-1.32954
-1.44313
-1.56921
-1.70691
-1.85546
-2.01446
-2.18361
-2.36262
-2.55117
-2.74905
-2.95602
-3.17192
-3.39658
-3.62981
-3.87148
-4.12146
-4.37954
-4.64562
-4.91948
-5.20098
-5.48988
-5.78597
-6.08903
-6.39871
-6.71466
-7.03673
-7.36449
-7.69754
-8.03542
-8.37768
-8.72393
-9.07367
-9.42633
-9.7813
-10.1381
-10.4961
-10.8548
-11.2136
-11.5719
-11.9292
-12.2849
-12.6386
-12.99
-13.3386
-13.6843
-14.0269
-14.3667
-14.7037
-15.0386
-15.3722
-15.7057
-16.0405
-16.379
-16.7237
-17.0783
-17.447
-17.8356
-18.251
-18.7016
-19.1986
-19.7548
-20.3873
-21.1166
-21.9688
-22.9773
-24.1829
-25.6389
-27.4134
-29.597
-32.3017
-35.6962
-39.9535
-45.4654
-52.3538
-61.9596
-73.1245
-92.318
-108.642
-156.557
-170.222
-316.459
-297.204
-761.382
-1.32955
-1.39919
-1.42337
-1.48159
-1.57477
-1.68342
-1.80344
-1.93767
-2.08662
-2.24903
-2.42398
-2.61116
-2.81027
-3.021
-3.24309
-3.47628
-3.72046
-3.97545
-4.24111
-4.51733
-4.80408
-5.10123
-5.40868
-5.72635
-6.05418
-6.39203
-6.73977
-7.09726
-7.46432
-7.84075
-8.22646
-8.62116
-9.02451
-9.43621
-9.85615
-10.2839
-10.7189
-11.161
-11.6098
-12.0647
-12.5256
-12.9917
-13.4628
-13.9385
-14.4183
-14.902
-15.389
-15.8794
-16.373
-16.8695
-17.3691
-17.8722
-18.3792
-18.8907
-19.4074
-19.9311
-20.4632
-21.0059
-21.5624
-22.1358
-22.7305
-23.3522
-24.0073
-24.7043
-25.4533
-26.2666
-27.1595
-28.1515
-29.2653
-30.5305
-31.9837
-33.6708
-35.651
-37.9981
-40.811
-44.2104
-48.3811
-53.5013
-60.0092
-67.9838
-78.9682
-91.44
-112.859
-130.371
-182.601
-196.362
-350.012
-331.633
-801.351
-1.70465
-1.79824
-1.8167
-1.88394
-1.99651
-2.12451
-2.26381
-2.41945
-2.59203
-2.77977
-2.98168
-3.19751
-3.42704
-3.66995
-3.92595
-4.19486
-4.47658
-4.77103
-5.07805
-5.3977
-5.72992
-6.07464
-6.43191
-6.80168
-7.18398
-7.57877
-7.98593
-8.40552
-8.83741
-9.28155
-9.73776
-10.206
-10.6861
-11.1779
-11.681
-12.1953
-12.7207
-13.2568
-13.8034
-14.3602
-14.9268
-15.5031
-16.0888
-16.6835
-17.2872
-17.8996
-18.5207
-19.1505
-19.789
-20.4365
-21.0933
-21.7599
-22.4374
-23.1266
-23.829
-24.5463
-25.2809
-26.0356
-26.814
-27.6202
-28.4595
-29.3384
-30.2649
-31.2483
-32.3001
-33.4346
-34.6693
-36.0251
-37.5285
-39.2119
-41.1149
-43.2886
-45.7969
-48.7196
-52.1643
-56.2594
-61.2054
-67.1831
-74.68
-83.7183
-96.0641
-109.774
-133.371
-151.919
-208.187
-221.996
-381.449
-365.236
-836.94
-2.06076
-2.1797
-2.18942
-2.26714
-2.40127
-2.54962
-2.70894
-2.88685
-3.08385
-3.29757
-3.527
-3.77205
-4.03245
-4.30793
-4.59822
-4.90321
-5.22284
-5.55706
-5.90585
-6.26922
-6.64728
-7.04
-7.4475
-7.86987
-8.30715
-8.7594
-9.22672
-9.7091
-10.2066
-10.7193
-11.247
-11.7898
-12.3477
-12.9205
-13.5082
-14.1108
-14.7281
-15.3599
-16.0061
-16.6665
-17.3411
-18.0297
-18.7322
-19.4485
-20.1787
-20.9227
-21.6808
-22.4529
-23.2397
-24.0415
-24.859
-25.6931
-26.5451
-27.4163
-28.3086
-29.2243
-30.1662
-31.1379
-32.1435
-33.1881
-34.2778
-35.4203
-36.6243
-37.9008
-39.2629
-40.7265
-42.3108
-44.0394
-45.9412
-48.0521
-50.4151
-53.0859
-56.1336
-59.6444
-63.7339
-68.5375
-74.2731
-81.1205
-89.6224
-99.7299
-113.457
-128.39
-154.179
-173.732
-233.865
-248.018
-411.849
-399.695
-846.672
-2.39676
-2.54113
-2.53924
-2.62946
-2.78739
-2.95702
-3.13713
-3.33825
-3.56051
-3.80086
-4.05838
-4.3331
-4.62482
-4.93327
-5.25818
-5.59957
-5.95735
-6.33158
-6.72237
-7.12975
-7.55389
-7.9949
-8.45301
-8.92831
-9.42096
-9.93116
-10.4591
-11.0049
-11.5686
-12.1504
-12.7504
-13.3686
-14.0052
-14.6603
-15.3338
-16.0257
-16.7362
-17.4649
-18.2122
-18.978
-19.7623
-20.565
-21.3863
-22.2263
-23.0851
-23.963
-24.8603
-25.7775
-26.7152
-27.6741
-28.6551
-29.6596
-30.6891
-31.7454
-32.8309
-33.9482
-35.1009
-36.2932
-37.5295
-38.8163
-40.1603
-41.5701
-43.0554
-44.6288
-46.3047
-48.1009
-50.0388
-52.1433
-54.447
-56.988
-59.8133
-62.9825
-66.5695
-70.6666
-75.397
-80.9019
-87.4165
-95.1147
-104.599
-115.728
-130.793
-146.831
-174.712
-195.033
-258.616
-272.919
-438.854
-433.732
-863.348
-2.71152
-2.88004
-2.86402
-2.96942
-3.15339
-3.34513
-3.54687
-3.77221
-4.02055
-4.28818
-4.57434
-4.87923
-5.20267
-5.54439
-5.90422
-6.28222
-6.67841
-7.09292
-7.52585
-7.97743
-8.4479
-8.93744
-9.44637
-9.97493
-10.5234
-11.0919
-11.6808
-12.2904
-12.9209
-13.5725
-14.2455
-14.94
-15.6562
-16.3945
-17.1548
-17.9371
-18.7419
-19.5692
-20.4191
-21.2917
-22.1872
-23.1059
-24.048
-25.0136
-26.0032
-27.0172
-28.0561
-29.1206
-30.2117
-31.3302
-32.4775
-33.655
-34.8649
-36.1092
-37.3908
-38.713
-40.0796
-41.4953
-42.9657
-44.4977
-46.099
-47.7791
-49.5491
-51.4224
-53.4153
-55.5466
-57.8401
-60.3229
-63.0293
-66.0012
-69.289
-72.9558
-77.0805
-81.7596
-87.1246
-93.3206
-100.6
-109.126
-119.566
-131.665
-148.019
-165.051
-194.909
-215.808
-282.381
-296.806
-462.668
-463.452
-887.494
-3.00402
-3.19391
-3.16185
-3.28573
-3.49791
-3.71251
-3.93683
-4.18748
-4.46274
-4.75831
-5.07364
-5.40917
-5.7647
-6.14002
-6.53503
-6.94986
-7.38463
-7.83958
-8.31486
-8.81084
-9.32782
-9.8661
-10.4261
-11.0081
-11.6126
-12.2398
-12.8902
-13.5642
-14.2621
-14.9841
-15.7308
-16.5024
-17.2992