/*--------------------------------*- C++ -*----------------------------------*\
  =========                 |
  \\      /  F ield         | OpenFOAM: The Open Source CFD Toolbox
   \\    /   O peration     | Website:  https://openfoam.org
    \\  /    A nd           | Version:  11
     \\/     M anipulation  |
\*---------------------------------------------------------------------------*/
FoamFile
{
    format      ascii;
    class       surfaceScalarField;
    location    "300";
    object      phi;
}
// * * * * * * * * * * * * * * * * * * * * * * * * * * * * * * * * * * * * * //

dimensions      [0 3 -1 0 0 0 0];

internalField   nonuniform List<scalar> 
62845
(
422014
-1.8956e+06
1.90573e+06
396371
-1.80374e+06
1.82938e+06
379141
-1.71301e+06
1.73024e+06
359558
-1.62671e+06
1.64629e+06
342009
-1.54459e+06
1.56214e+06
324623
-1.46654e+06
1.48393e+06
308468
-1.39215e+06
1.40831e+06
292931
-1.32144e+06
1.33698e+06
278209
-1.25419e+06
1.26891e+06
264182
-1.1903e+06
1.20433e+06
250908
-1.12962e+06
1.14289e+06
238328
-1.07196e+06
1.08454e+06
226291
-1.01711e+06
1.02915e+06
214972
-965137
976456
204104
-915633
926501
193920
-868750
878934
184151
-824083
833852
174885
-781785
791052
166152
-741597
750330
157841
-703371
711682
149887
-667102
675056
142425
-632738
640200
135296
-599976
607106
128535
-568964
575725
122131
-539499
545902
116025
-511478
517585
110254
-484949
490719
104760
-459710
465203
99583.5
-435808
440985
94565.8
-412992
418010
89897.7
-391460
396128
85422
-370959
375435
81179.9
-351537
355779
77164.8
-333044
337060
73320.7
-315528
319372
69689.9
-298886
302517
66216.4
-283116
286589
62944.3
-268119
271392
59818.4
-253888
257013
56843.4
-240389
243364
54014.1
-227579
230408
51325.7
-215420
218108
48764.1
-203875
206437
46329.8
-192925
195359
44009.1
-182527
184848
41802.8
-172661
174867
39693.3
-163295
165405
37691.1
-154414
156416
35779.1
-145976
147888
33958.8
-137976
139796
32222.6
-130377
132113
30567.8
-123169
124824
28982.8
-116321
117906
27478.6
-109832
111336
26039.3
-103666
105105
24662.9
-97808.5
99185
23351.6
-92256.8
93568.1
22094.7
-86981.7
88238.7
20898.9
-81972.2
83168
19753.7
-77217.3
78362.4
18657.5
-72701.5
73797.7
17608.6
-68409.6
69458.5
16605.4
-64335.2
65338.4
15646.3
-60463
61422.1
14725.8
-56782.5
57703
13846.5
-53283
54162.3
12998.9
-49953.9
50801.5
12185.9
-46788.8
47601.9
11409.9
-43781
44557
10661.8
-40908.4
41656.4
9940.59
-38176.1
38897.4
9248.64
-35570
36261.9
8584.69
-33087
33751
7940.26
-30709.6
31354.1
7321.16
-28438.4
29057.5
6719.86
-26265.2
26866.5
6138.51
-24179.6
24761
5574.38
-22176.5
22740.6
5025.71
-20246.9
20795.6
4490.63
-18384.1
18919.2
3967.41
-16580.1
17103.3
3454.16
-14826.6
15339.8
2949.25
-13115.2
13620.1
2450.42
-11437.6
11936.4
1956.09
-9783.63
10278
1466.49
-8149.06
8638.66
978.905
-6518.83
7006.42
512.893
-4924.03
5390.04
-3267.53
3780.43
513230
-1.87238e+06
487499
-1.77801e+06
463522
-1.68903e+06
440472
-1.60366e+06
418452
-1.52257e+06
397387
-1.44548e+06
377416
-1.37218e+06
358398
-1.30243e+06
340306
-1.2361e+06
323160
-1.17316e+06
306845
-1.11331e+06
291340
-1.05645e+06
276679
-1.00245e+06
262689
-951147
249456
-902399
236858
-856152
224931
-812157
213557
-770411
202772
-730812
192561
-693160
182909
-657450
173653
-623482
164931
-591254
156580
-560613
148688
-531607
141246
-504035
134142
-477845
127366
-452934
120909
-429351
114863
-406946
109116
-385714
103615
-365457
98350.1
-346272
93411.9
-328106
88695.8
-310812
84243.8
-294434
80001.6
-278874
75961.8
-264080
72104.6
-250030
68458.2
-236743
64984.5
-224105
61683.1
-212118
58543.7
-200736
55553.5
-189935
52707
-179681
50001.4
-169955
47427.7
-160722
44973
-151959
42638.7
-143642
40412.2
-135749
38295.3
-128260
36275.7
-121149
34355.5
-114401
32518.1
-107995
30766.1
-101914
29101.3
-96143.8
27508.3
-90663.7
25989.2
-85462.6
24537.9
-80520.9
23152.3
-75831.6
21830.6
-71379.8
20566.8
-67145.8
19363.4
-63131.8
18206.2
-59305.8
17101.9
-55678.3
16049
-52230.1
15041.9
-48946.8
14075.2
-45822.1
13147.6
-42853.4
12257.6
-40018.4
11407.8
-37326.3
10592.9
-34755.1
9804.33
-32298.4
9048.04
-29953.4
8322.55
-27712.9
7621.94
-25564.6
6945.16
-23502.9
6290.78
-21522.1
5656.61
-19612.7
5040.76
-17768.3
4441.17
-15980.5
3855.75
-14241.2
3282.17
-12541.6
2718.58
-10874
2162.66
-9227.71
1613.93
-7600.34
1071.53
-5976.43
546.652
-4399.15
-2720.88
606212
-1.84135e+06
576253
-1.74805e+06
547452
-1.66023e+06
520044
-1.57625e+06
493969
-1.4965e+06
469090
-1.4206e+06
445413
-1.34851e+06
422929
-1.27994e+06
401567
-1.21474e+06
381253
-1.15284e+06
361977
-1.09403e+06
343664
-1.03814e+06
326298
-985082
309758
-934606
294074
-886715
279182
-841260
265062
-798037
251698
-757047
238926
-718040
226828
-681062
215292
-645914
204405
-612595
194053
-580902
184274
-550834
174905
-522239
166037
-495167
157609
-469417
149660
-444985
142082
-421774
134865
-399729
127952
-378800
121481
-358986
115347
-340138
109444
-322203
103913
-305280
98597.5
-289118
93543
-273819
88750.7
-259287
84231
-245511
79905.8
-232418
75802
-220001
71895.7
-208212
68178.9
-197019
64650.2
-186406
61291.8
-176322
58095.3
-166759
55056.5
-157683
52162.1
-149065
49408.2
-140888
46783.5
-133125
44283.8
-125761
41906.8
-118772
39640.1
-112134
37485.8
-105840
35427.6
-99855.9
33467.9
-94184
31603.9
-88799.8
29820.5
-83679.3
28124.1
-78824.5
26508.7
-74216.1
24958.8
-69830
23486
-65673
22075.4
-61721.2
20738
-57968.4
19455.4
-54395.7
18226.3
-51000.9
17052.9
-47773.5
15933.7
-44702.9
14859.5
-41779.1
13836.3
-38995.3
12855.3
-36345.3
11911.1
-33810.9
11009.8
-31397.1
10146.2
-29089.7
9312.1
-26878.9
8511.08
-24763.6
7740.86
-22732.7
6997.54
-20778.8
6279.5
-18894.7
5584.67
-17073.5
4910.05
-15305.9
4253.74
-13584.8
3613.1
-11900.9
2985.84
-10246.8
2369.6
-8611.47
1762.9
-6993.63
1166.63
-5380.16
584.569
-3817.09
-2136.31
698336
-1.80459e+06
663421
-1.71314e+06
630053
-1.62686e+06
598396
-1.54459e+06
568167
-1.46627e+06
539520
-1.39195e+06
512277
-1.32126e+06
486334
-1.254e+06
461765
-1.19017e+06
438368
-1.12945e+06
416148
-1.07181e+06
395098
-1.01709e+06
374996
-964980
356024
-915635
337962
-868653
320842
-824140
304545
-781740
289057
-741559
274411
-703393
260492
-667144
247237
-632659
234681
-600039
222760
-568981
211414
-539488
200680
-511506
190448
-484935
180755
-459724
171544
-435774
162803
-413033
154474
-391399
146599
-370925
139119
-351507
131976
-332995
125214
-315441
118774
-298840
112700
-283045
106887
-268005
101379
-253779
96139
-240271
91166.2
-227445
86432.8
-215268
81932.6
-203712
77660.6
-192747
73589
-182334
69724.2
-172458
66049.4
-163084
62548
-154182
59221.6
-145738
56052.8
-137719
53041.2
-130113
50176.4
-122896
47444
-116040
44847.6
-109538
42369.6
-103362
40016.8
-97503.1
37768.6
-91935.8
35627.2
-86658.4
33594.5
-81646.6
31651
-76881
29798.5
-72363.7
28039.8
-68071.3
26355.4
-63988.6
24752.2
-60118
23215.5
-56431.8
21756.5
-52936.6
20364.7
-49609.1
19034.6
-46443.3
17760.7
-43429.1
16549.1
-40567.5
15386.8
-37833
14275.8
-35234.3
13215
-32750.1
12195.1
-30377.2
11218.5
-28113.1
10285.7
-25946.1
9388.81
-23866.7
8526.24
-21870.1
7696.37
-19948.9
6896.51
-18094.8
6123.91
-16300.9
5376.57
-14558.5
4651.03
-12859.3
3945.3
-11195.2
3256.11
-9557.57
2580.95
-7936.31
1918.02
-6330.7
1267.58
-4729.73
626.394
-3175.9
-1509.92
788433
-1.76267e+06
748794
-1.6735e+06
710987
-1.58905e+06
675105
-1.50871e+06
641062
-1.43223e+06
608601
-1.35949e+06
577771
-1.29043e+06
548551
-1.22478e+06
520760
-1.16238e+06
494381
-1.10307e+06
469348
-1.04678e+06
445482
-993223
422913
-942411
401431
-894152
381055
-848277
361676
-804761
343320
-763385
325873
-724113
309269
-686790
293543
-651418
278631
-617746
264418
-585825
250942
-555505
238190
-526736
226050
-499366
214512
-473397
203565
-448777
193150
-425358
183255
-403138
173873
-382017
164993
-362046
156460
-342973
148464
-325000
140847
-307825
133556
-291549
126631
-276120
120115
-261490
113889
-247553
107977
-234359
102353
-221821
97008
-209923
91932.3
-198636
87105.2
-187920
82517.8
-177747
78151.6
-168091
74001.8
-158934
70056.3
-150236
66300.9
-141983
62731.3
-134150
59336.5
-126718
56102.3
-119662
53027.1
-112965
50096.9
-106608
47314.6
-100580
44659
-94847.5
42137
-89413.7
39732.1
-84253.5
37437.7
-79352.2
35260.3
-74703.5
33180.2
-70283.7
31199.6
-66090.7
29312.2
-62101.1
27511.7
-58317.5
25796.4
-54716.5
24160
-51300.3
22596.9
-48046
21109.3
-44955.7
19691.3
-42011
18329.5
-39205.7
17034
-36537.5
15795.6
-33995.8
14608.5
-31563
13478.9
-29247.6
12394.2
-27028.3
11354.6
-24906.6
10357.8
-22869.9
9401.5
-20913.8
8481.72
-19029.1
7596.83
-17209.9
6743.3
-15447.3
5918.14
-13733.4
5118.74
-12059.9
4341.77
-10418.2
3584.12
-8799.91
2842.47
-7194.66
2114.03
-5602.26
1398.34
-4014.04
684.442
-2462
-825.475
876329
-1.71598e+06
832070
-1.62924e+06
790040
-1.54702e+06
750056
-1.46873e+06
712123
-1.39429e+06
676086
-1.32346e+06
641848
-1.2562e+06
609325
-1.19225e+06
578387
-1.13144e+06
549056
-1.07374e+06
521180
-1.0189e+06
494775
-966817
469613
-917250
445783
-870322
423123
-825617
401596
-783234
381144
-742932
361761
-704729
343361
-668390
325842
-633900
309236
-601140
293481
-570070
278512
-540536
264266
-512490
250733
-485833
237951
-460615
225710
-436536
214149
-413797
203160
-392149
192782
-371639
182808
-352072
173479
-333644
164487
-316008
155976
-299313
147937
-283510
140266
-268449
132955
-254178
126052
-240651
119469
-227776
113220
-215572
107284
-203987
101637
-192988
96268.3
-182552
91169.4
-172648
86321.4
-163243
81706.6
-154319
77324.6
-145854
73157
-137815
69192.8
-130186
65417.4
-122943
61831.1
-116075
58419.2
-109553
55169.1
-103358
52077.2
-97488.1
49140
-91910.2
46337.9
-86611.7
43672.4
-81587.9
41136.8
-76816.7
38719.9
-72286.5
36419.1
-67982.9
34223.7
-63895.2
32140.3
-60017.8
30149.6
-56326.8
28258.2
-52825
26447.3
-49489.4
24727.6
-46326.3
23080.9
-43309
21513.6
-40443.7
20019.8
-37712
18593.9
-35111.6
17226.5
-32628.5
15927.5
-30263.9
14683.6
-28003.8
13493.4
-25838.1
12352.1
-23765.4
11260.4
-21778.1
10213.6
-19867
9208.72
-18024.3
8242.54
-16243.8
7311.97
-14516.8
6413.79
-12835.2
5544.67
-11190.8
4701.25
-9574.82
3879.57
-7978.23
3075.91
-6391
2287
-4813.36
1506.64
-3233.68
711.255
-1666.62
-114.221
961697
-1.66477e+06
913016
-1.58056e+06
866788
-1.5008e+06
822962
-1.4249e+06
781222
-1.35255e+06
741669
-1.2839e+06
704052
-1.21858e+06
668348
-1.15655e+06
634491
-1.09759e+06
602248
-1.04149e+06
571692
-988345
542611
-937736
515040
-889679
488841
-844123
463998
-800774
440350
-759587
417933
-720515
396607
-683403
376394
-648176
357194
-614700
339011
-582958
321674
-552732
305223
-524085
289596
-496863
274781
-471018
260666
-446500
247291
-423161
234596
-401102
222521
-380074
211057
-360175
200196
-341211
189829
-323277
180000
-306179
170700
-290013
161823
-274633
153411
-260037
145416
-246183
137799
-233034
130580
-220557
123720
-208712
117197
-197464
110998
-186789
105109
-176663
99508.8
-167048
94184.5
-157919
89126.6
-149262
84312.9
-141040
79738.9
-133241
75387
-125834
71252.7
-118808
67315.6
-112138
63576.9
-105814
60017.9
-99798.8
56632.4
-94102.7
53408.6
-88686.4
50343.6
-83546.7
47425.6
-78670
44647.4
-74038.5
42002.6
-69641.7
39488.8
-65469.1
37094.6
-61501
34809.6
-57732.8
32636
-54153.2
30567.3
-50756.4
28597.6
-47519.7
26712.3
-44441
24926
-41522.8
23216.6
-38734.2
21590.3
-36085.7
20033.4
-33554.7
18555.9
-31151
17137.1
-28845.1
15786.3
-26653
14494.1
-24545.9
13260.7
-22531.9
12079.8
-20597.2
10948
-18735.3
9863.71
-16939.9
8822
-15202
7820.58
-13515.3
6855.62
-11870.3
5923.61
-10258.8
5020.52
-8671.72
4142.65
-7100.36
3284.89
-5533.25
2443.67
-3972.14
1606.47
-2396.47
762.509
-822.659
648.289
1.04439e+06
-1.60917e+06
991540
-1.52771e+06
941330
-1.45058e+06
893596
-1.37717e+06
848336
-1.30729e+06
805332
-1.2409e+06
764474
-1.17772e+06
725675
-1.11775e+06
688825
-1.06074e+06
653835
-1.0065e+06
620594
-955104
589066
-906207
559133
-859745
530633
-815623
503587
-773728
477986
-733986
453605
-696134
430485
-660283
408495
-626186
387640
-593845
367789
-563107
348988
-533931
331124
-506221
314124
-479863
298037
-454932
282700
-431163
268201
-408662
254380
-387281
241278
-366972
228837
-347734
216997
-329371
205751
-312031
195091
-295518
184960
-279882
175301
-264974
166156
-250893
157466
-237492
149209
-224778
141360
-212708
133899
-201251
126815
-190380
120080
-180054
113682
-170265
107595
-160961
101817
-152141
96321.1
-143766
91093.3
-135813
86124.9
-128273
81407.5
-121116
76915
-114316
72648.4
-107872
68578.8
-101745
64720.2
-95940.2
61044.9
-90427.3
57550.9
-85192.4
54229.8
-80225.6
51065.1
-75505.3
48056
-71029.3
45190.4
-66776.2
42465.5
-62744.2
39870.9
-58906.4
37399.2
-55261.1
35049
-51803
32809.4
-48516.9
30674.2
-45384.4
28645.8
-42412.6
26709.5
-39586.5
24867.8
-36892.6
23106.9
-34324.7
21436.5
-31884.3
19835.5
-29550
18313.5
-27323.1
16857.7
-25197.3
15470.9
-23159
14144.6
-21205.6
12876.6
-19329.2
11664.1
-17522.7
10502
-15777.9
9388.85
-14088.9
8319.13
-12445.6
7290.59
-10841.7
6298.66
-9266.84
5339.13
-7712.19
4407.61
-6168.84
3499.17
-4624.81
2608.54
-3081.51
1719.51
-1507.43
866.717
30.1274
1515
1.12411e+06
-1.54926e+06
1.06725e+06
-1.47084e+06
1.01321e+06
-1.39654e+06
961894
-1.32585e+06
913174
-1.25858e+06
866817
-1.19454e+06
822903
-1.13381e+06
781104
-1.07595e+06
741427
-1.02106e+06
703832
-968907
668006
-919278
634056
-872257
601799
-827488
571167
-784992
542088
-744649
514450
-706348
488230
-669914
463310
-635364
439682
-602558
417171
-571334
395868
-541804
375563
-513627
356335
-486992
338083
-461611
320688
-437537
304235
-414709
288571
-392998
273733
-372444
259564
-352802
246153
-334323
233441
-316660
221322
-299913
209788
-283984
198881
-268975
188543
-254636
178662
-241012
169298
-228128
160401
-215881
151951
-204258
143918
-193218
136287
-182749
129037
-172804
122140
-163368
115592
-154413
109364
-145912
103442
-137845
97821.9
-130192
92472.8
-122924
87387.8
-116031
82556.3
-109484
77959.7
-103275
73592.3
-97377.1
69433.4
-91781.4
65483.2
-86477.1
61722.8
-81432
58142.3
-76645.1
54743.2
-72106.1
51507.7
-67793.9
48429.3
-63697.8
45498.2
-59813.1
42711.1
-56119.3
40057.4
-52607.4
37530.2
-49275.7
35123.1
-46109.8
32838.6
-43099.8
30657.5
-40231.5
28578.4
-37507.4
26599.1
-34913.3
24717.4
-32443
22919.8
-30086.8
21208.3
-27838.5
19577.2
-25691.9
18017
-23637.2
16530.1
-21672.1
15110.8
-19786.2
13754.1
-17972.6
12457
-16225.6
11215.6
-14536.5
10025.5
-12898.7
8883.83
-11304
7785.67
-9743.56
6727.21
-8208.38
5703.82
-6688.8
4710.56
-5175.58
3741.78
-3656.03
2790.31
-2130.04
1841.44
-558.559
935.898
935.668
2450.9
1.2009e+06
-1.48533e+06
1.14017e+06
-1.41011e+06
1.08245e+06
-1.33882e+06
1.02759e+06
-1.27099e+06
975513
-1.2065e+06
926047
-1.14508e+06
879057
-1.08682e+06
834470
-1.03137e+06
792072
-978660
751820
-928655
713660
-881118
677306
-835904
642845
-793027
610151
-752298
579063
-713560
549499
-676784
521508
-641922
494863
-608719
469599
-577294
445607
-547341
422767
-518965
401116
-491975
380551
-466427
360998
-442057
342497
-419037
324848
-397060
308130
-376280
292187
-356500
277157
-337772
262785
-319951
249160
-303035
236226
-286978
223974
-271732
212249
-257250
201143
-243530
190648
-230516
180636
-218116
171129
-206374
162089
-195218
153503
-184632
145344
-174589
137591
-165051
130225
-156002
123226
-147414
116572
-139258
110252
-131525
104239
-124179
98524.7
-117210
93091.1
-110598
87929.6
-104323
83018.5
-98363.9
78348.1
-92706.8
73913.9
-87347.2
69691.3
-82254.5
65674.7
-77415.4
61860.1
-72830.5
58231.5
-68477.5
54772.3
-64334.7
51491.6
-60417.1
48360.4
-56681.9
45384.4
-53143.3
42560.1
-49783
39867.6
-46583.3
37300.6
-43542.7
34860.8
-40660.1
32538.7
-37909.5
30327.6
-35296.2
28221.5
-32807.2
26214.4
-30435.9
24300.5
-28172.8
22477.9
-26016
20740.9
-23954.8
19087.1
-21983.3
17507.5
-20092.6
15999.8
-18278.6
14560.4
-16533.2
13184.1
-14849.3
11868.1
-13220.5
10607.7
-11638.3
9398.49
-10094.8
8236.62
-8581.69
7117.59
-7089.35
6036.3
-5607.51
4987.3
-4126.58
3963.85
-2632.58
2959.26
-1125.46
1959.89
440.812
994.71
1900.85
3445.61
1.27437e+06
-1.41754e+06
1.20998e+06
-1.34571e+06
1.14872e+06
-1.27757e+06
1.09056e+06
-1.21283e+06
1.03527e+06
-1.15121e+06
982771
-1.09258e+06
932896
-1.03694e+06
885512
-983982
840605
-933753
797846
-885895
757261
-840533
718778
-797420
682182
-756432
647393
-717508
614407
-680575
583101
-645478
553349
-612170
525090
-580460
498215
-550419
472751
-521876
448543
-494758
425570
-469002
403662
-444519
382978
-421373
363241
-399300
344552
-378370
326786
-358515
309940
-339654
293865
-321698
278640
-304725
264161
-288556
250419
-273237
237408
-258721
225020
-244862
213245
-231755
202037
-219308
191408
-207487
181308
-196275
171712
-185622
162600
-175520
153934
-165923
145706
-156824
137880
-148175
130445
-139979
123383
-132196
116670
-124812
110289
-117798
104224
-111144
98460.7
-104834
92977.5
-98839.8
87768.6
-93155.1
82817.1
-87755.2
78108.4
-82638.5
73627.6
-77773.7
69370.6
-73158.4
65321.4
-68781.2
61467.6
-64623.8
57813.8
-60680.9
54325.3
-56928.5
51014.2
-53370.9
47860.6
-49989.6
44859.8
-46782.2
42009.5
-43733
39299.6
-40832.9
36709.1
-38069.6
34253.7
-35454
31914.7
-32957.3
29686
-30578.4
27561.7
-28311.6
25543.6
-26154.8
23621.8
-24094.2
21790.7
-22123.8
20041.1
-20233.7
18376
-18427.4
16787.3
-16689.9
15271.7
-15017.6
13824.3
-13401.9
12441.2
-11837.4
11117.7
-10314.9
9850.05
-8827.11
8633.73
-7365.37
7463.36
-5918.98
6334.23
-4478.38
5240.62
-3032.97
4174.09
-1566.04
3126.88
-78.2476
2089.87
1477.82
1078.66
2912.05
4524.28
1.34446e+06
-1.34598e+06
1.27649e+06
-1.27774e+06
1.21194e+06
-1.21302e+06
1.15056e+06
-1.15145e+06
1.09223e+06
-1.09288e+06
1.0369e+06
-1.03725e+06
984264
-984303
934317
-934035
886826
-886263
841776
-840845
798947
-797704
758315
-756789
719705
-717821
683056
-680859
648235
-645754
615138
-612381
583700
-580731
553902
-550663
525570
-522087
498658
-494965
473077
-469177
448840
-444765
425823
-421502
403916
-399466
383103
-378486
363374
-358641
344628
-339769
326748
-321775
309880
-304829
293808
-288654
278531
-273279
264039
-258745
250227
-244908
237154
-231790
224722
-219323
212908
-207495
201693
-196271
191030
-185612
180899
-175491
171277
-165898
162131
-156777
153439
-148132
145191
-139927
137344
-132132
129883
-124735
122796
-117725
116062
-111065
109662
-104744
103579
-98751.8
97798.2
-93058.7
92295.7
-87652.6
87072.4
-82531.9
82103.6
-77669.7
77379.6
-73049.7
72892
-68670.8
68624.1
-64513.3
64563.2
-60562.9
60699.2
-56816.9
57028.6
-53258
53540
-49882.2
50222.1
-46671.8
47061.6
-43621.7
44055.9
-40727.3
41193.7
-37970.7
38480.4
-35356.2
35890.2
-32863.9
33424.8
-30491.9
31083.6
-28237.2
28855.8
-26083.8
26731.5
-24030.5
24708.8
-22071.5
22783.5
-20198.4
20951.8
-18402.1
19205
-16680.6
17540.5
-15025.4
15952.5
-13429.5
14437.8
-11887.3
12991.6
-10391.1
11609.5
-8932.8
10287.2
-7504.74
9019.45
-6097.67
7802.56
-4702.1
6630.13
-3305.95
5496.23
-1899.06
4389.41
-459.22
3308.01
1003.15
2235.74
2550.09
1183.17
3964.62
5707.45
1.411e+06
-1.27102e+06
1.33973e+06
-1.20647e+06
1.27192e+06
-1.1452e+06
1.20756e+06
-1.0871e+06
1.14639e+06
-1.03172e+06
1.08828e+06
-979136
1.03307e+06
-929093
980685
-881647
930842
-836419
883579
-793583
838670
-752795
795945
-714064
755447
-677324
716992
-642404
680426
-609187
645760
-577715
612797
-547768
581470
-519336
551704
-492321
523490
-466751
496676
-442362
471177
-419267
447002
-397327
424024
-376488
402192
-356654
381447
-337896
361773
-320095
343109
-303111
325305
-287025
308395
-271744
292429
-257312
277193
-243509
262712
-230428
248965
-218042
235909
-206268
223510
-195095
211728
-184489
200529
-174413
189902
-164863
179789
-155786
170193
-147181
161069
-139008
152396
-131255
144158
-123894
136335
-116912
128893
-110283
121821
-103993
115103
-98025.3
108712
-92361.1
102638
-86984.2
96869.1
-81884.2
91385.9
-77048.6
86169.3
-72453.2
81210.2
-68090.6
76496.2
-63956.8
72015.4
-60032.6
67753.1
-56300.6
63703.6
-52767.3
59849.5
-49403.9
56182
-46214.7
52694.9
-43184.7
49383.6
-40310.4
46229.1
-37572.8
43228.9
-34970.5
40374.6
-32501.9
37661.8
-30151
35080.6
-27910.7
32622.3
-25778.9
30282.5
-23743.9
28054.7
-21802.8
25933.2
-19950.1
23914.6
-18179.8
21991.2
-16478.8
20158.3
-14847.6
18411.3
-13278.4
16745.5
-11763.7
15156.1
-10297.9
13637.7
-8872.75
12186.6
-7481.74
10797.8
-6115.9
9466.1
-4765.98
8186.13
-3422.13
6951.88
-2071.69
5756.07
-703.259
4585.91
710.945
3441.19
2147.86
2295.12
3696.16
1168.56
5091.18
6876.01
1.47375e+06
-1.19265e+06
1.39932e+06
-1.13203e+06
1.32859e+06
-1.07448e+06
1.26133e+06
-1.01983e+06
1.19744e+06
-967828
1.13676e+06
-918452
1.07915e+06
-871484
1.02435e+06
-826845
972382
-784455
922933
-744134
876021
-705883
831499
-669542
789168
-634993
748932
-602168
710769
-571024
674464
-541411
640038
-513342
607344
-486642
576307
-461284
546766
-437210
518762
-414358
492136
-392641
466854
-372045
442830
-352464
420048
-333872
398381
-316230
377737
-299451
358215
-283589
339682
-268492
322044
-254105
305242
-240510
289346
-227614
274247
-215328
259887
-203682
246247
-192627
233285
-182133
220970
-172174
209274
-162717
198156
-153745
187596
-145225
177559
-137144
168028
-129476
158968
-122195
150359
-115285
142173
-108727
134403
-102513
127015
-96604.4
119992
-91001.8
113315
-85683.9
106975
-80644.1
100947
-75856.5
95212.9
-71314.7
89764.8
-67005.1
84590.9
-62916.6
79670.1
-59035.9
74984
-55346.6
70537.2
-51853.8
66302.1
-48532.2
62281.7
-45383.6
58458.9
-42391.9
54821.2
-39547.1
51358.1
-36847.2
48069.2
-34283.9
44944.3
-31845.6
41966.3
-29523.9
39135
-27319.8
36441.9
-25217.6
33878.8
-23215.8
31443
-21308.1
29124.2
-19484
26918
-17743.9
24814.9
-16076.6
22813.5
-14477.5
20908.2
-12942.3
19092.8
-11463
17362.5
-10033.5
15712.4
-8647.71
14138.4
-7298.79
12634.6
-5977.95
11196.7
-4677.98
9819.67
-3388.95
8497.76
-2100.22
7223.79
-797.72
5989.9
530.635
4789.57
1911.27
3615.38
3322.05
2434.01
4877.53
1267.74
6257.46
8143.74
1.53265e+06
-1.11128e+06
1.4552e+06
-1.05458e+06
1.38166e+06
-1.00094e+06
1.31174e+06
-949917
1.24533e+06
-901416
1.18224e+06
-855360
1.12231e+06
-811554
1.06537e+06
-769904
1.01125e+06
-730337
959880
-692765
911100
-657103
864726
-623167
820697
-590964
778903
-560374
739167
-531288
701474
-503717
665617
-477485
631573
-452598
599282
-428993
568583
-406511
539400
-385176
511733
-364973
485428
-345740
460460
-327497
436721
-310133
414158
-293667
392813
-278105
372467
-263244
353121
-249145
334772
-235757
317372
-223110
300795
-211038
285067
-199600
270121
-188736
255925
-178432
242441
-168649
229627
-159359
217452
-150543
205888
-142181
194899
-134237
184463
-126708
174538
-119552
165113
-112770
156152
-106324
147644
-100218
139553
-94422.5
131864
-88914.8
124561
-83699.5
117624
-78746.3
111024
-74044
104753
-69585.9
98789.8
-65351.4
93124.2
-61339.5
87739
-57531.4
82616.5
-53913.4
77753
-50483.2
73126.6
-47227.4
68727.9
-44133.5
64547.4
-41203.1
60572.7
-38417.1
56791.4
-35765.8
53197.1
-33252.9
49781.2
-30868
46532.1
-28596.5
43442.2
-26434.1
40501.7
-24379.2
37705.8
-22421.7
35050.3
-20560.2
32520.2
-18778
30113.7
-17077.5
27824.1
-15454.2
25645.9
-13898.4
23573.7
-12405.3
21600.7
-10969.3
19722.1
-9584.37
17933.3
-8244.66
16228.7
-6943.07
14603.3
-5673.45
13052.6
-4427.26
11571.6
-3196.96
10154.8
-1972.09
8796.28
-741.734
7488.45
510.103
6227.26
1791.83
5001.39
3137.15
3805.14
4518.3
2598.24
6084.43
1402.71
7452.99
9546.46
1.58742e+06
-1.02687e+06
1.50731e+06
-974476
1.43112e+06
-924746
1.35877e+06
-877560
1.28998e+06
-832629
1.22461e+06
-789995
1.16254e+06
-749475
1.10358e+06
-710953
1.04754e+06
-674296
994376
-639598
943784
-606511
895794
-575178
850187
-545357
806896
-517083
765751
-490143
726700
-464667
689559
-440345
654327
-417366
620842
-395508
589037
-374705
558852
-354990
530168
-336289
502883
-318456
477032
-301646
452461
-285562
429111
-270317
406914
-255909
385812
-242141
365803
-229136
346838
-216792
328761
-205033
311600
-193876
295300
-183300
279818
-173254
265107
-163721
251129
-154671
237852
-146083
225238
-137929
213251
-130193
201867
-122853
191047
-115888
180767
-109271
170993
-102996
161718
-97048.8
152898
-91398.1
144508
-86032.9
136548
-80954.6
128978
-76129.5
121782
-71549.9
114946
-67208.3
108444
-63083.7
102272
-59180.2
96399.3
-55466.4
90819.4
-51951.5
85515.1
-48609.2
80473.5
-45441.5
75679.2
-42433.1
71125.1
-39579.4
66793.5
-36871.5
62670.7
-34294.3
58757.1
-31852.2
55039
-29534.8
51495.9
-27324.9
48127.9
-25228.5
44931.6
-23237.9
41889.6
-21337.2
38993.1
-19525.2
36237.3
-17804.5
33622.1
-16162.7
31133.1
-14588.5
28764.3
-13085.4
26510.6
-11644.7
24365.4
-10260.1
22324.4
-8928.33
20381.1
-7641.07
18530.3
-6393.87
16767.3
-5180.06
15086.5
-3992.64
13483.2
-2823.92
11952.3
-1666.04
10486.8
-506.618
9081.3
663.74
7729.91
1861.49
6426.22
3095.52
5156.15
4407.22
3915.72
5758.72
2659.72
7340.44
1413.84
8698.87
10960.3
1.63814e+06
-939932
1.55542e+06
-891752
1.47688e+06
-846206
1.40216e+06
-802839
1.33125e+06
-761719
1.26383e+06
-722572
1.19973e+06
-685382
1.1389e+06
-650119
1.08114e+06
-616533
1.02621e+06
-584673
974086
-554386
924535
-525627
877469
-498291
832742
-472356
790307
-447709
750004
-424364
711707
-402047
675355
-381014
640787
-360940
607987
-341905
576800
-323804
547168
-306657
519065
-290353
492346
-274927
466945
-260160
442901
-246274
419963
-232971
398222
-220400
377580
-208494
357926
-197138
339284
-186391
321570
-176162
304749
-166479
288761
-157266
273575
-148535
259148
-140244
245440
-132375
232420
-124909
220045
-117818
208290
-111098
197116
-104714
186504
-98659.8
176422
-92914
166836
-87462.4
157725
-82287.7
149076
-77383.6
140851
-72729.9
133033
-68310.9
125605
-64122.3
118547
-60150.2
111844
-56380.8
105463
-52799.1
99407.3
-49410.7
93643.8
-46188
88168.8
-43134.2
82966.9
-40239.6
78020.3
-37486.5
73315.8
-34874.9
68843.3
-32399
64596.9
-30047.8
60560
-27815.3
56715.7
-25690.5
53066.7
-23675.9
49591.9
-21753.7
46291.4
-19937.3
43150.1
-18196
40167.9
-16543
37328.7
-14965.2
34626.3
-13460.4
32059.2
-12021.4
29616.5
-10642.7
27292.7
-9320.89
25082.9
-8050.24
22978.8
-6824.3
20976.6
-5638.82
19070.1
-4487.38
17254.2
-3364.17
15523.5
-2261.96
13873.2
-1173.59
12296
-88.8654
10788.2
1001.19
9343.36
2108.58
7954.55
3250.31
6613.84
4436.23
5305.96
5715.1
4027.54
7037.14
2729.05
8638.93
1438.34
9989.57
12398.6
1.68443e+06
-850420
1.59947e+06
-806789
1.51862e+06
-765355
1.44187e+06
-726087
1.3689e+06
-688755
1.29961e+06
-653278
1.23377e+06
-619542
1.17121e+06
-587560
1.11178e+06
-557102
1.05529e+06
-528182
1.00169e+06
-500791
950722
-474657
902347
-449917
856420
-426429
812765
-404053
771271
-382869
731928
-362704
694466
-343552
658935
-325409
625157
-308127
593139
-291786
562704
-276222
533749
-261398
506216
-247394
480145
-234089
455333
-221462
431806
-209444
409449
-198043
388182
-187227
367997
-176953
348806
-167199
330590
-157946
313277
-149166
296839
-140829
281209
-132905
266370
-125405
252265
-118270
238865
-111509
226137
-105090
214041
-99001.8
202548
-93220.4
191630
-87742.4
181252
-82536.3
171393
-77603.4
162029
-72923.7
153128
-68481.8
144666
-64268.8
136627
-60271.4
128986
-56481.6
121727
-52891.4
114825
-49478.6
108270
-46244.1
102034
-43174.2
96109.4
-40263.8
90483.2
-37508
85127.7
-34884.1
80042.7
-32401.5
75206.9
-30039.1
70614.9
-27807
66246.2
-25679.1
62089.3
-23658.5
58140.7
-21742
54386.9
-19922.1
50826.3
-18193.1
47430.5
-16541.5
44205.3
-14970.7
41141.2
-13479
38227.8
-12051.7
35456.6
-10689.2
32821.9
-9386.73
30317.9
-8138.72
27935.7
-6938.71
25670
-5784.58
23515.1
-4669.36
21464.8
-3588.57
19514.2
-2536.7
17657.6
-1507.63
15889.1
-493.472
14203.6
511.971
12596.7
1518.01
11062.2
2535.68
9595
3575.78
8186.47
4658.83
6830.67
5792.03
5510.73
7035.04
4223.91
8323.97
2915.11
9947.72
1615.63
11289.1
14014.3
1.72642e+06
-758770
1.63925e+06
-719615
1.55651e+06
-682620
1.47785e+06
-647422
1.40304e+06
-613951
1.33205e+06
-582284
1.26457e+06
-552067
1.20042e+06
-523409
1.13952e+06
-496198
1.08171e+06
-470378
1.02671e+06
-445788
974522
-422469
924973
-400367
877849
-379305
833092
-359297
790569
-340345
750198
-322334
711890
-305244
675447
-288966
640861
-273541
608005
-258930
576734
-244951
547147
-231812
518960
-219206
492228
-207357
466784
-196018
442637
-185297
419697
-175103
397899
-165429
377200
-156254
357541
-147540
338862
-139268
321110
-131413
304243
-123962
288228
-116890
273008
-110184
258550
-103812
244814
-97773.8
231760
-92036.1
219355
-86597.1
207575
-81440.3
196377
-76544
185737
-71896.6
175627
-67493.7
166021
-63316.9
156889
-59350.3
148214
-55593.3
139974
-52031.2
132142
-48650.1
124695
-45444.7
117618
-42400.9
110896
-39522
104503
-36781.3
98434
-34195.1
92656.1
-31730.1
87173.6
-29401.5
81954.2
-27182.1
76999.7
-25084.6
72288
-23095.4
67805.8
-21196.9
63551.4
-19404
59509.5
-17700
55661.8
-16074.4
52002.2
-14533.5
48530.4
-13069.7
45227.6
-11667.9
42085
-10336.4
39099.7
-9066.45
36261.2
-7850.67
33562.7
-6688.23
30995.9
-5571.88
28555.9
-4498.74
26235.7
-3464.31
24029.5
-2463.18
21930.7
-1489.84
19934.2
-540.14
18033.8
392.743
16224.7
1315.69
14500.8
2235.86
12857.3
3161.49
11288.8
4104.2
9788.9
5075.65
8350.63
6097.1
6966.46
7176.2
5619.31
8382.19
4306.96
9636.32
2965.27
11289.4
1636.89
12617.4
15651.2
1.76379e+06
-665151
1.67482e+06
-630642
1.59022e+06
-598024
1.50987e+06
-567073
1.43357e+06
-537647
1.36098e+06
-509694
1.29205e+06
-483143
1.22658e+06
-457934
1.16438e+06
-434004
1.10526e+06
-411248
1.04913e+06
-389663
995835
-369173
945120
-349652
897014
-331199
851303
-313586
807885
-296927
766677
-281126
727446
-266013
690254
-251774
654904
-238191
621293
-225319
589448
-213106
559106
-201469
530382
-190483
502989
-179964
477026
-170055
452346
-160616
428904
-151661
406641
-143166
385487
-135100
365387
-127440
346287
-120168
328155
-113280
310925
-106733
294555
-100519
278993
-94623.1
264213
-89031.7
250167
-83728.3
236828
-78696.4
224156
-73925.4
212107
-69391.5
200661
-65098
189786
-61021.5
179453
-57160.4
169630
-53494.7
160305
-50024.9
151435
-46723.2
143007
-43603.1
134999
-40642.1
127390
-37836
120157
-35167.4
113279
-32644.2
106754
-30256.5
100540
-27981.4
94641
-25830.7
89030.8
-23791.3
83702.1
-21853.5
78634.8
-20017.3
73816.7
-18277.2
69244.5
-16624.7
64891.8
-15051.3
60755.5
-13563.7
56823.4
-12142.3
53088.9
-10799.1
49531.3
-9512.08