/*--------------------------------*- C++ -*----------------------------------*\
  =========                 |
  \\      /  F ield         | OpenFOAM: The Open Source CFD Toolbox
   \\    /   O peration     | Website:  https://openfoam.org
    \\  /    A nd           | Version:  11
     \\/     M anipulation  |
\*---------------------------------------------------------------------------*/
FoamFile
{
    format      ascii;
    class       surfaceScalarField;
    location    "300";
    object      phi;
}
// * * * * * * * * * * * * * * * * * * * * * * * * * * * * * * * * * * * * * //

dimensions      [0 3 -1 0 0 0 0];

internalField   nonuniform List<scalar> 
62845
(
48158.7
-552794
554287
45162.4
-525586
528582
43296.4
-499130
500996
40947.9
-474203
476551
39025
-450390
452313
37002.7
-427831
429854
35206.1
-406347
408144
33431.1
-385955
387730
31778
-366557
368210
30180.9
-348145
349742
28689.9
-330654
332145
27274
-314040
315456
25908.3
-298236
299602
24639.8
-283262
284531
23402
-268997
270235
22264.1
-255487
256625
21155.2
-242614
243723
20103
-230421
231474
19123.1
-218836
219816
18185.6
-207814
208751
17276.1
-197354
198264
16438.2
-187442
188280
15628.2
-177990
178800
14860.5
-169041
169809
14135.1
-160537
161262
13437.3
-152448
153145
12781.7
-144787
145443
12153.6
-137498
138126
11567.6
-130593
131179
10979.7
-124000
124588
10448.4
-117777
118308
9929.76
-111849
112368
9438.36
-106233
106724
8974.15
-100883
101347
8522.54
-95814.1
96265.7
8098.07
-90996.6
91421
7686.18
-86430.1
86842
7301.42
-82085.3
82470.1
6929.26
-77960.4
78332.6
6572.65
-74046.4
74403
6231.62
-70329.9
70670.9
5906.24
-66800.4
67125.8
5593.68
-63447.5
63760
5295.47
-60265
60563.2
5008.83
-57241.1
57527.7
4735.3
-54369.6
54643.2
4470.67
-51641.8
51906.4
4219.42
-49052.9
49304.2
3977.32
-46591.2
46833.3
3745.99
-44255
44486.3
3524.11
-42034
42255.8
3311.84
-39925.1
40137.3
3106.41
-37919.4
38124.9
2912.34
-36017
36211.1
2725.41
-34207.4
34394.4
2545.76
-32486.4
32666
2374.98
-30853.7
31024.4
2210.29
-29300.6
29465.3
2054.72
-27824.2
27979.7
1905.48
-26421.5
26570.7
1762.68
-25088.1
25230.9
1626.42
-23819.8
23956
1496.79
-22614.9
22744.6
1373.88
-21469.3
21592.2
1256.33
-20379.8
20497.4
1145.65
-19343.8
19454.5
1039.03
-18358.2
18464.8
937.97
-17421.7
17522.7
843.961
-16532.7
16626.7
754.203
-15684.2
15774
668.747
-14879
14964.5
589.085
-14112.9
14192.6
515.247
-13385.8
13459.6
444.462
-12692.1
12762.8
379.64
-12033.2
12098
318.308
-11407.4
11468.7
261.959
-10812
10868.4
210.12
-10246.4
10298.3
162.88
-9709.23
9756.47
120.006
-9199.08
9241.95
82.328
-8715.83
8753.51
48.1521
-8258.4
8292.57
22.1117
-7824.66
7850.7
-3.69564
-7425.25
7451.06
-13.4629
-7027.66
7037.43
-31.7965
-6723.12
6741.46
-18.6531
-6306.17
6293.02
-40.0371
-6289.05
6310.43
-5617.03
5576.99
75059.6
-549131
71219
-521745
67708.7
-495620
64296.3
-470790
61086.9
-447181
58004.3
-424749
55101.6
-403444
52330.9
-383184
49699.7
-363926
47209.3
-345655
44838.8
-328284
42583.1
-311785
40459.9
-296113
38423.2
-281225
36503.5
-267077
34670.6
-253654
32939.6
-240883
31280.8
-228763
29709
-217264
28224
-206329
26825.8
-195956
25470.3
-186087
24201.4
-176721
22975.2
-167815
21820.8
-159382
20738.1
-151365
19697.9
-143747
18700.1
-136500
17744.7
-129638
16860.7
-123116
16018.9
-116935
15204.6
-111035
14417.9
-105446
13687.9
-100153
12985.3
-95111.5
12324.7
-90336
11691.5
-85796.9
11085.7
-81479.5
10503
-77377.7
9953.58
-73497
9427.29
-69803.6
8925.62
-66298.7
8447.2
-62969
7989.17
-59807
7551.65
-56803.5
7134.71
-53952.7
6737.02
-51244.1
6355.78
-48671.7
5992.57
-46228
5644.6
-43907
5313.46
-41702.8
4996.37
-39608
4694.93
-37618
4404.9
-35727
4127.87
-33930.4
3865.4
-32223.9
3613.28
-30601.5
3373.07
-29060.4
3143.42
-27594.5
2924.45
-26202.5
2716.25
-24879.9
2517.47
-23621
2329.63
-22427.1
2148.49
-21288.1
1977.01
-20208.4
1815.25
-19182
1661.83
-18204.8
1515.38
-17275.2
1375.95
-16393.3
1243.61
-15551.9
1119.81
-14755.3
1003.19
-13996.3
890.96
-13273.6
786.016
-12587.1
688.394
-11935.6
596.344
-11315.4
510.079
-10725.8
429.709
-10166.1
355.082
-9634.6
286.151
-9130.15
223.295
-8652.98
165.812
-8200.91
116.021
-7774.87
69.4009
-7378.63
37.1495
-6995.41
0.386948
-6686.36
-6.06843
-6299.71
-46.0975
-6249.02
-5663.13
102043
-543796
96907.5
-516610
92048.4
-490761
87407.2
-466149
83021.9
-442795
78840.4
-420567
74863.4
-399467
71090.9
-379412
67508.9
-360344
64102.7
-342248
60872.4
-325054
57803.2
-308715
54895.1
-293205
52118.6
-278449
49488.4
-264447
46989.6
-251156
44622.3
-238515
42386.1
-226527
40237.2
-215115
38204.8
-204296
36259.4
-194010
34430.2
-184258
32688
-174979
31047.2
-166174
29463.9
-157799
27967.2
-149868
26542.5
-142323
25204.3
-135162
23923.3
-128357
22699.5
-121892
21518.1
-115753
20422.9
-109940
19384.7
-104408
18374.3
-99142.6
17435.3
-94172.5
16524
-89424.7
15654.9
-84927.9
14831.1
-80655.7
14056.7
-76603.4
13310.1
-72750.4
12601.4
-69094.9
11924.8
-65622.2
11279
-62323.2
10665.4
-59193.4
10079.8
-56217.9
9520.75
-53393.7
8988.4
-50711.7
8479.92
-48163.2
7995.43
-45743.5
7532.12
-43443.7
7090.1
-41260.8
6669.49
-39187.4
6267.51
-37216
5885.7
-35345.2
5519.86
-33564.6
5171.53
-31875.6
4840.81
-30270.8
4523.48
-28743
4222.52
-27293.6
3936.57
-25916.6
3661.42
-24604.8
3401.45
-23361
3152.42
-22178.1
2918.72
-21054.4
2694.66
-19984.3
2480.31
-18967.7
2277.16
-18001.6
2085.28
-17083.3
1901.83
-16209.8
1729.73
-15379.8
1566.14
-14591.7
1409.74
-13839.9
1263.37
-13127.2
1125.67
-12449.4
994.03
-11804
870.475
-11191.8
754.778
-10610.1
646.078
-10057.4
544.468
-9532.99
449.956
-9035.63
362.309
-8565.33
281.355
-8119.96
208.561
-7702.08
140.934
-7311.01
86.8231
-6941.3
31.1359
-6630.68
5.90714
-6274.48
-50.1483
-6192.97
-5713.27
128829
-536981
122335
-510116
116163
-484588
110316
-460303
104730
-437209
99451.3
-415289
94437.1
-394453
89657.9
-374633
85142.9
-355829
80833.7
-337939
76744.9
-320965
72876.3
-304847
69169.3
-289498
65682.2
-274962
62356.4
-261121
59206.5
-248006
56202.8
-235512
53345.5
-223669
50648.9
-212419
48083.7
-201731
45635.2
-191562
43317.8
-181940
41116.9
-172778
39017.8
-164075
37034.9
-155816
35138.9
-147972
33344.3
-140528
31636.6
-133454
30015.5
-126736
28466.4
-120343
27003.9
-114291
25613.2
-108549
24279.8
-103075
23018.2
-97881
21813.6
-92968
20680.8
-88291.8
19590.5
-83837.6
18557.2
-79622.4
17572.3
-75618.4
16637.2
-71815.2
15744.5
-68202.3
14894.5
-64772.1
14087
-61515.7
13314.9
-58421.3
12581.1
-55484.1
11882.8
-52695.4
11215.7
-50044.7
10581.4
-47528.9
9975.57
-45137.6
9399.74
-42867.9
8851.12
-40712.2
8326.93
-38663.2
7828.69
-36717.8
7352.17
-34868.6
6900.36
-33112.8
6467.57
-31442.8
6055.34
-29858.6
5665.2
-28352.9
5291.47
-26919.8
4935.68
-25560.8
4599.31
-24268.4
4276.73
-23038.4
3970.84
-21872.2
3677.43
-20761
3400.83
-19707.7
3138.25
-18705.1
2888.3
-17751.7
2649.59
-16844.6
2425.03
-15985.3
2210.37
-15165.1
2007.1
-14388.4
1815.22
-13648
1631.99
-12944
1458.84
-12276.3
1296.61
-11641.7
1142.88
-11038.1
997.701
-10464.9
861.159
-9920.81
732.916
-9404.75
612.728
-8915.45
500.779
-8453.38
396.483
-8015.66
301.061
-7606.65
212.303
-7222.25
136.577
-6865.58
62.1521
-6556.25
17.6683
-6230
-53.9261
-6121.37
-5767.2
155251
-528724
147431
-502297
139980
-477137
132914
-453237
126216
-430510
119826
-408899
113760
-388387
108018
-368891
102556
-350366
97373.2
-332757
92455.4
-316047
87758.3
-300150
83325.8
-285065
79099
-270735
75092.5
-257115
71276.7
-244190
67666.3
-231901
64231.8
-220235
60958.4
-209145
57860.6
-198633
54923.7
-188625
52118.2
-179135
49458.7
-170119
46945.1
-161561
44548
-153419
42267.4
-145692
40103.1
-138364
38040.5
-131391
36079.4
-124775
34219.7
-118484
32461.5
-112533
30760.8
-106849
29175.9
-101490
27663.1
-96368.1
26207.6
-91512.6
24824.1
-86908.3
23527
-82540.5
22282.9
-78378.3
21100.5
-74436
19973.9
-70688.6
18901.7
-67130.1
17882.4
-63752.9
16911.8
-60545.1
15988.4
-57497.8
15107.8
-54603.6
14270.2
-51857.8
13472.7
-49247.2
12712.4
-46768.6
11989.5
-44414.7
11301.1
-42179.4
10644.4
-40055.4
10019.4
-38038.2
9423.39
-36121.8
8857.88
-34303.1
8317.16
-32572
7804.19
-30929.8
7314.74
-29369.1
6847.43
-27885.6
6405.22
-26477.6
5982.43
-25138
5580.55
-23866.6
5198.22
-22656.1
4834.06
-21508
4488.12
-20415.1
4159.02
-19378.6
3845.38
-18391.4
3548.65
-17455
3267.45
-16563.4
2997.59
-15715.4
2743.31
-14910.9
2501.82
-14146.9
2271.78
-13417.9
2055.97
-12728.1
1850.25
-12070.5
1655.5
-11447
1471.33
-10853.9
1297.66
-10291.2
1133.61
-9756.76
979.372
-9250.51
834.43
-8770.5
698.524
-8317.47
571.703
-7888.84
454.377
-7489.33
345.264
-7113.13
249.335
-6769.65
156.621
-6463.54
93.8743
-6167.25
7.94945
-6035.45
-5759.25
181276
-519087
172121
-493142
163438
-468453
155170
-444970
147331
-422671
139889
-401457
132816
-381315
126097
-362172
119703
-343972
113647
-326701
107886
-310286
102434
-294698
97232.1
-279864
92309.8
-265813
87622.7
-252428
83170.8
-239738
78939.1
-227670
74927.6
-216223
71121.4
-205339
67491.1
-195003
64051.3
-185185
60787.1
-175871
57683.7
-167015
54726.6
-158604
51915.5
-150608
49264.9
-143041
46716.4
-135815
44313.5
-128989
42027.1
-122488
39871.5
-116328
37788.5
-110450
35850.7
-104911
33970.7
-99609.8
32192.1
-94589.5
30514.9
-89835.4
28909.9
-85303.3
27377
-81007.6
25932.3
-76933.5
24550.9
-73054.6
23238.6
-69376.4
21991.2
-65882.6
20802.7
-62564.4
19671.8
-59414.2
18597
-56423
17574
-53580.6
16598.4
-50882.2
15671.8
-48320.6
14789.9
-45886.7
13949.9
-43574.6
13148.8
-41378.4
12388.2
-39294.9
11663.9
-37313.9
10972.9
-35430.8
10315.4
-33645.7
9691.53
-31948.1
9095.45
-30333.7
8528.71
-28802.4
7989.95
-27346.8
7476.33
-25964
6987.94
-24649.6
6521.96
-23400.6
6081.27
-22215.4
5660.24
-21087
5261.72
-20016.6
4880.11
-18997
4519.65
-18031
4174.74
-17110
3848.22
-16236.9
3538.7
-15405.9
3244.78
-14616.9
2963.71
-13865.8
2699.66
-13153.9
2448.48
-12477
2210.2
-11832.3
1983.76
-11220.5
1769.98
-10640.1
1567.79
-10089
1376.87
-9565.83
1196.71
-9070.35
1027.06
-8600.85
867.616
-8158.03
718.211
-7739.44
579.178
-7350.29
449.415
-6983.37
333.03
-6653.26
221.961
-6352.47
139.456
-6084.75
38.9186
-5934.91
-5720.33
206799
-508105
196342
-482685
186416
-458527
177009
-435563
168044
-413706
159552
-392965
151473
-373236
143807
-354506
136539
-336704
129611
-319772
123051
-303726
116800
-288447
110873
-273937
105241
-260180
99903
-247090
94815
-234650
89991.6
-222846
85403.2
-211635
81049.8
-200986
76916.5
-190870
73003.1
-181272
69265.7
-172133
65718.7
-163468
62347.3
-155233
59151.5
-147412
56101.9
-139991
53213
-132926
50470.1
-126246
47858.4
-119876
45377.9
-113847
43028.4
-108100
40780.8
-102663
38649.4
-97478.5
36634.4
-92574.5
34706.3
-87907.3
32879.8
-83476.8
31141.7
-79269.5
29483.2
-75275
27911.6
-71483
26416.6
-67881.4
24993.9
-64459.9
23640.6
-61211.1
22353.7
-58127.3
21129
-55198.3
19963.5
-52415.1
18855.8
-49774.5
17800.1
-47264.9
16796.5
-44883.1
15840.7
-42618.8
14932.7
-40470.4
14066.8
-38429
13244.5
-36491.5
12461.5
-34647.8
11716.3
-32900.5
11006.3
-31238.1
10331.4
-29658.8
9688.76
-28159.8
9077.09
-26735.1
8494.94
-25381.9
7942.36
-24097
7416.55
-22874.8
6914.67
-21713.6
6438.2
-20610.5
5985.73
-19564.1
5555.86
-18567.1
5144.4
-17619.5
4756.97
-16722.6
4386.58
-15866.5
4036.03
-15055.3
3701.15
-14282.1
3386.1
-13550.8
3083.97
-12851.8
2798.89
-12191.9
2528.01
-11561.4
2271.96
-10964.5
2029.15
-10397.3
1799.06
-9858.95
1581.71
-9348.49
1376.08
-8864.72
1182.11
-8406.88
999.369
-7975.29
827.682
-7567.75
666.916
-7189.53
516.723
-6833.18
379.668
-6516.21
249.765
-6222.56
146.786
-5981.77
31.7112
-5819.83
-5688.62
231779
-495796
220068
-470975
208946
-447405
198370
-424987
188341
-403677
178814
-383437
169759
-364181
161161
-345908
152991
-328534
145235
-312016
137861
-296352
130871
-281457
124234
-267300
117907
-253853
111904
-241086
106224
-228970
100809
-217431
95673
-206499
90787.2
-196100
86151
-186233
81735
-176856
77553.8
-167952
73577.9
-159492
69792.5
-151448
66212.1
-143832
62792.8
-136572
59563.7
-129697
56480.7
-123163
53558.5
-116954
50782.2
-111071
48137.3
-105455
45623.6
-100150
43241
-95095.9
40974.9
-90308.4
38810.7
-85743.1
36762.7
-81428.9
34815.1
-77321.8
32963.2
-73423.2
31201.4
-69721.1
29525.2
-66205.2
27933.1
-62867.8
26417.8
-59695.8
24977.9
-56687.4
23606.1
-53826.5
22303.9
-51112.9
21064
-48534.7
19883.6
-46084.5
18761.2
-43760.7
17695.4
-41553
16679
-39454
15713.5
-37463.5
14791.7
-35569.7
13918
-33774.1
13085.2
-32067.7
12293.4
-30446.2
11541
-28906.5
10824
-27442.8
10142.3
-26053.4
9493.02
-24732.6
8876.28
-23480.3
8289.22
-22287.7
7730.46
-21154.8
7200
-20080.1
6695.02
-19059.1
6214.15
-18086.2
5758.77
-17164.1
5324.69
-16288.5
4913.29
-15455.1
4520.42
-14662.5
4150.2
-13911.9
3795.74
-13196.3
3461.15
-12517.2
3142.28
-11873
2840.92
-11260
2554.61
-10678.2
2283.2
-10125.9
2026.12
-9601.87
1782.51
-9104.88
1552.29
-8634.5
1334.6
-8189.19
1129.21
-7769.9
935.762
-7374.3
753.912
-7007.68
583.368
-6662.63
426.11
-6358.95
277.697
-6074.15
153.554
-5857.63
24.4151
-5690.69
-5664.21
256115
-482177
243181
-458041
230893
-435117
219225
-413319
208147
-392599
197600
-372890
187614
-354194
178100
-336394
169073
-319507
160518
-303460
152361
-288195
144632
-273727
137285
-259954
130307
-246875
123683
-234462
117382
-222669
111405
-211454
105722
-200816
100333
-190711
95194.4
-181095
90334.6
-171996
85695
-163312
81304.9
-155102
77134.9
-147277
73155.5
-139853
69395.8
-132812
65811.9
-126113
62418.2
-119769
59170.9
-113707
56099
-107999
53187.8
-102544
50408.1
-97369.9
47759.7
-92447.5
45257.2
-87805.8
42885.9
-83371.7
40613.7
-79156.6
38460.8
-75169
36414.2
-71376.6
34469.5
-67776.4
32619.3
-64355
30860.6
-61109.2
29189.2
-58024.4
27597.7
-55095.9
26086.1
-52314.9
24647.1
-49673.9
23277.9
-47165.5
21978.5
-44785.1
20740.1
-42522.4
19562.9
-40375.8
18443.9
-38335
17378.7
-36398.4
16366.1
-34557.1
15401.7
-32809.7
14485.5
-31151.5
13613.2
-29573.9
12782
-28075.3
11993.4
-26654.1
11243
-25303
10529.5
-24019.1
9850.05
-22800.8
9204.6
-21642.2
8590.36
-20540.6
8005.92
-19495.6
7449.89
-18503.1
6923.64
-17560
6421.57
-16662.1
5943.67
-15810.6
5489.93
-15001.4
5060.34
-14232.9
4650.71
-13502.2
4262.41
-12808
3894.04
-12148.8
3542.85
-11521.8
3210.31
-10927.5
2895.04
-10362.9
2595.79
-9826.67
2312.31
-9318.39
2043.77
-8836.33
1789.38
-8380.12
1548.9
-7948.7
1321.6
-7542.6
1107.12
-7159.83
905.225
-6805.78
715.639
-6473.05
539.695
-6183
373.868
-5908.32
231.511
-5715.27
87.1821
-5546.37
-5577.02
279808
-467305
265682
-443915
252260
-421694
239500
-400560
227389
-380488
215883
-361384
204951
-343263
194580
-326024
184711
-309638
175343
-294093
166462
-279314
157994
-265259
149968
-251928
142354
-239261
135108
-227216
128216
-215777
121692
-204930
115477
-194601
109585
-184819
103988
-175497
98655.2
-166663
93601.4
-158259
88797.3
-150298
84228.1
-142708
79908.2
-135533
75779
-128683
71869.7
-122204
68136.3
-116036
64622.4
-110193
61255
-104632
58063.1
-99352.1
55032.1
-94338.8
52161.7
-89577.2
49408.3
-85052.4
46800.9
-80764.3
44339.3
-76695.1
41987.2
-72816.9
39753.2
-69142.6
37627
-65650.2
35607.2
-62335.1
33686.4
-59188.4
31860.3
-56198.2
30124.4
-53360
28474.5
-50664.9
26904.6
-48104
25413.3
-45674.2
23993.4
-43365.2
22643.4
-41172.4
21359
-39091.4
20138.8
-37114.7
18976.9
-35236.5
17872
-33452.2
16822.6
-31760.3
15823
-30151.9
14871.7
-28622.7
13968.9
-27172.4
13110.1
-25795.3
12291.1
-24484.1
11514.7
-23242.7
10773.9
-22060
10070.1
-20938.4
9403.24
-19873.7
8767.67
-18860
8161.99
-17897.4
7587.62
-16985.6
7041.68
-16116.1
6522.8
-15291.7
6029.54
-14508.1
5560.49
-13763.8
5114.26
-13056
4690.81
-12384.6
4288.72
-11746.7
3907.98
-11141.1
3545.8
-10565.3
3202.02
-10019.1
2876.09
-9500.73
2566.75
-9009.05
2273.7
-8543.29
1996
-8102.41
1733.05
-7685.75
1484.1
-7293.65
1249.14
-6924.88
1027.39
-6584.03
818.676
-6264.34
623.759
-5988.09
440.39
-5724.95
280.029
-5554.91
118.639
-5384.98
-5458.39
302744
-451227
287470
-428641
272942
-407167
259151
-386768
246037
-367374
233587
-348933
221755
-331431
210513
-314782
199861
-298986
189711
-283942
180076
-269680
170943
-256126
162251
-243236
153987
-230998
146151
-219379
138712
-208338
131641
-197859
124923
-187883
118529
-178425
112473
-169441
106711
-160901
101243
-152791
96025.4
-145080
91101.1
-137784
86397.1
-130829
81942.5
-124229
77707.9
-117969
73693.3
-112021
69854.6
-106354
66220.9
-100998
62763
-95894.2
59480.7
-91056.5
56373.9
-86470.4
53413.4
-82091.9
50597.6
-77948.5
47914.8
-74012.3
45370.8
-70272.8
42952.3
-66724.1
40653.5
-63351.4
38469.9
-60151.6
36391.4
-57109.9
34417.9
-54224.7
32539.2
-51481.3
30753.8
-48879.5
29057.4
-46407.6
27444
-44060.9
25909.5
-41830.6
24450.8
-39713.7
23063.6
-37704.2
21743.6
-35794.7
20489.4
-33982.2
19296.5
-32259.3
18162.2
-30625.9
17082.1
-29071.8
16056.2
-27596.8
15080.2
-26196.4
14151.3
-24866.4
13270.8
-23603.6
12430.3
-22402.2
11632.5
-21262.2
10873.2
-20179.1
10150.9
-19151.5
9465.74
-18174.9
8814.71
-17246.4
8192.28
-16363.2
7603.99
-15527.8
7044.21
-14732
6511.55
-13975.5
6004.57
-13256.9
5524.61
-12576
5068.88
-11928.8
4635.94
-11313.8
4223.2
-10728.3
3832.34
-10174.4
3461.17
-9647.96
3109.09
-9148.65
2774.98
-8674.94
2458.11
-8226.42
2157.68
-7801.98
1872.97
-7401.05
1603.42
-7024.09
1348.26
-6669.72
1106.99
-6342.75
879.482
-6036.83
665.858
-5774.46
464.422
-5523.52
284.388
-5374.88
106.792
-5207.38
-5351.59
324892
-433957
308485
-412234
292913
-391595
278105
-371961
264033
-353303
250683
-335583
237981
-318729
225928
-302729
214464
-287522
203590
-273068
193246
-259336
183434
-246313
174107
-233910
165252
-222143
156839
-210966
148839
-200338
141236
-190256
134030
-180678
127178
-171573
120664
-162927
114473
-154711
108606
-146924
103033
-139507
97724.5
-132475
92680.4
-125784
87900.5
-119449
83355.4
-113424
79015.8
-107681
74925.5
-102264
71025.7
-97098.5
67316.4
-92185
63797.6
-87537.7
60439.9
-83112.7
57263.7
-78915.7
54241.1
-74925.9
51367.7
-71138.9
48639
-67544.2
46043.4
-64128.5
43576.3
-60884.4
41232
-57807.3
39003.1
-54881
36883.7
-52105.3
34872.3
-49470
32957.3
-46964.6
31135.8
-44586.1
29404.8
-42329.9
27760
-40185.8
26195.5
-38149.2
24708.4
-36217.2
23294.5
-34380.8
21947.9
-32635.6
20670
-30981.4
19453.6
-29409.6
18297.3
-27915.5
17198.2
-26497.7
16153.5
-25151.7
15158.7
-23871.6
14212.6
-22657.4
13313.6
-21503.2
12460.3
-20408.9
11648.4
-19367.2
10875
-18378.1
10140.3
-17440.1
9441.25
-16547.3
8779.23
-15701.2
8147.27
-14895.9
7546.74
-14131.4
6977.55
-13406.3
6436.89
-12716.2
5921.96
-12061.1
5432.71
-11439.6
4968.27
-10849.3
4528.02
-10288.1
4109.33
-9755.75
3711.99
-9250.62
3334.62
-8771.29
2976.59
-8316.9
2636.91
-7886.75
2314.7
-7479.77
2009.14
-7095.48
1719.5
-6734.45
1445.26
-6395.47
1185.46
-6082.96
939.799
-5791.17
707.846
-5542.51
489.212
-5304.89
288.653
-5174.32
94.9586
-5013.69
-5256.64
346196
-415583
328730
-394768
312113
-374978
296348
-356196
281363
-338317
267128
-321348
253601
-305202
240765
-289893
228549
-275306
216967
-261485
205959
-248328
195482
-235836
185550
-223978
176118
-212711
167144
-201992
158641
-191834
150550
-182165
142857
-172984
135546
-164262
128618
-155999
122029
-148121
115763
-140658
109820
-133564
104171
-126827
98801.6
-120415
93696.5
-114344
88855.7
-108583
84264.3
-103090
79878.5
-97878.1
75712.7
-92932.7
71781.4
-88253.7
68026
-83782.4
64455.4
-79542.1
61064.9
-75525.2
57844.2
-71705.3
54784.6
-68079.2
51875.7
-64635.3
49110.2
-61363
46485.2
-58259.3
43985.9
-55308
41613.8
-52508.9
39357.2
-49848.7
37211.7
-47324.5
35172.9
-44925.8
33236.4
-42649.6
31393.4
-40487
29641.2
-38433.5
27976.6
-36484.7
26392.5
-34633.1
24886
-32874.3
23455.6
-31205.2
22095.5
-29621.3
20801.3
-28115.4
19570.2
-26684.4
18400.8
-25328.2
17288.6
-24039.5
16230.9
-22813.9
15226.1
-21652.7
14270
-20547.1
13359.7
-19498.6
12495.2
-18502.7
11675
-17557.9
10893.5
-16658.5
10150.5
-15804.4
9444.75
-14995.4
8774.68
-14225.8
8137.45
-13494.2
7531.69
-12800.5
6955.93
-12140.4
6408.74
-11513.9
5888.68
-10919.5
5395.28
-10355.9
4926.41
-9819.22
4481.08
-9310.42
4058.25
-8827.79
3656.76
-8369.8
3275.89
-7936.03
2914.23
-7525.09
2571.13
-7136.67
2245.77
-6770.12
1937.08
-6425.76
1644.51
-6102.9
1367.15
-5805.6
1104.94
-5528.95
856.882
-5294.45
622.988
-5070.99
407.056
-4958.39
199.405
-4806.03
-5057.23
366583
-396106
348087
-376272
330514
-357404
313807
-339489
297938
-322449
282864
-306274
268555
-290893
254938
-276277
242029
-262397
229738
-249195
218081
-236671
207013
-224768
196490
-213455
186483
-202704
176992
-192501
167957
-182800
159394
-173602
151257
-164848
143532
-156538
136176
-148643
129202
-141147
122566
-134022
116269
-127267
110280
-120838
104600
-114735
99199.2
-108943
94048.1
-103432
89175.9
-98217.9
84553.3
-93255.5
80150.8
-88530.2
75953.8
-84056.7
71984
-79812.6
68212.2
-75770.2
64623.6
-71936.6
61213.8
-68295.4
57972.5
-64837.9
54892.2
-61555.1
51965.7
-58436.5
49182.7
-55476.3
46538.8
-52664
44025
-49995.1
41637.1
-47460.8
39366.3
-45053.6
37208.1
-42767.6
35155.3
-40596.7
33206.3
-38538
31352.5
-36579.7
29589.4
-34721.6
27912.7
-32956.4
26321
-31282.5
24806.8
-29691
23366
-28180.5
21997.1
-26746.4
20697
-25384.4
19460.1
-24091.4
18282.1
-22861.5
17164.4
-21696.1
16099.7
-20588
15089.4
-19536.9
14129.4
-18538.5
13215.2
-17588.5
12345.4
-16688.2
11520
-15833.1
10736.1
-15020.5
9989.49
-14248.8
9280.06
-13516.4
8606.4
-12820.6
7965.65
-12159.8
7357.73
-11532.5
6779.84
-10936
6231.07
-10370.8
5708.64
-9833.5
5212.86
-9323.45
4742.15
-8839.71
4295.09
-8380.73
3870.65
-7945.35
3467.52
-7532.9
3085.05
-7142.62
2721.83
-6773.46
2377.1
-6425.39
2050.03
-6098.69
1739.71
-5792.58
1445
-5510.9
1165.81
-5249.76
900.807
-5029.45
650.248
-4820.43
416.277
-4724.42
190.735
-4580.49
-4866.5
386024
-375628
366527
-356776
348027
-338904
330437
-321899
313729
-305741
297860
-290404
282785
-275818
268461
-261952
254843
-248779
241918
-236270
229641
-224394
217969
-213095
206885
-202372
196361
-192181
186353
-182492
176860
-173307
167824
-164566
159245
-156268
151106
-148400
143366
-140902
136007
-133789
129032
-127046
122394
-120630
116095
-114539
110105
-108744
104408
-103246
99020.1
-98044.2
93881.8
-93079.6
88993.3
-88366.9
84354.3
-83891.2
79957.4
-79659.8
75767.4
-75622.7
71790.2
-71793
68009.4
-68155.8
64417.9
-64703.9
61005.1
-61425.2
57760.9
-58310.8
54677.9
-55353.5
51748.6
-52547
48964.4
-49879.8
46319.3
-47350
43803.1
-44944.6
41412.8
-42663.3
39139.7
-40494.4
36980.7
-38437.8
34927.2
-36484.5
32974.8
-34627.2
31120.4
-32867.3
29358.4
-31194.4
27681.4
-29605.5
26088
-28097.6
24572.3
-26664.8
23131.4
-25305.6
21762.5
-24015.5
20459.7
-22788.6
19223.1
-21624.9
18046.8
-20519.8
16927.9
-19469.1
15865.1
-18474
14853.9
-17527.4
13892.9
-16627.6
12979.3
-15774.6
12111.6
-14965.4
11286.9
-14195.8
10502.4
-13464.2
9756.52
-12770.5
9047.9
-12111.9
8375
-11486.9
7735.11
-10892.6
7126.97
-10327.9
6549.14
-9792.93
6000.45
-9284.82
5479.43
-8802.43
4984.38
-8344.66
4514.27
-7910.61
4067.87
-7498.96
3644.05
-7109.08
3241.47
-6740.04
2859.34
-6391.32
2496.59
-6062.65
2151.97
-5754.07
1824.88
-5465.49
1513.97
-5199.98
1218.85
-4954.65
937.71
-4748.3
671.285
-4554.01
418.532
-4471.66
176.692
-4338.65
-4689.8
404430
-354135
384037
-336382
364640
-319507
346226
-303485
328723
-288238
312088
-273769
296291
-260021
281289
-246950
267023
-234513
253493
-222740
240612
-211513
228393
-200876
216778
-190757
205753
-181155
195272
-172012
185321
-163356
175857
-155101
166878
-147289
158341
-139863
150231
-132792
142533
-126091
135217
-119731
128255
-113667
121660
-107944
115388
-102473
109426
-97283.6
103757
-92375.5
98367.1
-87690
93256.6
-83256.3
88413.2
-79047.9
83791.7
-75038.3
79405
-71236
75237
-67625
71277.3
-64196.2
67514.2
-60940.7
63937.4
-57848.3
60539.4
-54912.9
57310
-52124.1
54240.4
-49477.5
51324.7
-46964.1
48552.6
-44578
45918.3
-42310.3
43412.9
-40157.9
41034.9
-38116.5
38772.7
-36175.6
36620.5
-34332.2
34578.1
-32584.9
32635.4
-30924.6
30788
-29347
29033
-27850.4
27363.1
-26427.7
25778.3
-25080
24269.8
-23797.2
22836.3
-22581.9
21473.3
-21425.6
20178
-20329.5
18946
-19287.8
17775.8
-18299
16663.2
-17361.4
15603.7
-16467.9
14598.9
-15622.7
13644.2
-14820
12734.2
-14055.4
11870.1
-13331.7
11050.4
-12644.5
10270.9
-11991
9528.72
-11369.8
8823.84
-10782
8154.8
-10223.6
7519.43
-9692.52
6915.28
-9188.77
6341.29
-8710.82
5795.88
-8257.02
5278.12
-7826.91
4786.16
-7418.65
4318.96
-7031.76
3875.29
-6665.41
3453.98
-6318.73
3053.94
-5991.28
2674.08
-5682.79
2313.15
-5393.15
1970.24
-5122.57
1644.29
-4874.04
1334.55
-4644.91
1038.97
-4452.73
758.587
-4273.62
490.316
-4203.39
234.836
-4083.17
-4454.97
421819
-331760
400528
-315092
380322
-299301
361098
-284262
342860
-269999
325518
-256427
309029
-243532
293379
-231300
278523
-219658
264389
-208606
250977
-198100
238227
-188127
226111
-178641
214598
-169643
203675
-161088
193296
-152978
183433
-145238
174070
-137927
165164
-130956
156714
-124342
148676
-118053
141035
-112090
133791
-106423
126901
-101053
120348
-95920.7
114149
-91084
108229
-86455.4
102617
-82078.5
97290.6
-77929.8
92216.8
-73974
87402.9
-70224.4
82826.9
-66660
78481.4
-63279.4
74351.6
-60066.4
70425.8
-57015
66696.6
-54119.1
63152.3
-51368.5
59785.4
-48757.2
56584.2
-46276.3
53542.9
-43922.7
50651.2
-41686.2
47904.5
-39563.6
45294.3
-37547.7
42811.5
-35633.8
40452
-33816
38211.2
-32091.4
36080.3
-30454
34053.7
-28897.9
32128.2
-27421.5
30298.1
-26020.4
28560.4
-24690
26905.1
-23424.6
25334.8
-22226.9
23839.6
-21086.7
22419.3
-20005.4
21069.7
-18979.9
19786.3
-18004.5
18566.3
-17079
17405.4
-16200.4
16304.8
-15367.4
15257.5
-14575.4
14260.5
-13823
13315.2
-13110.1
12414.6
-12431
11559.8
-11789.8
10746.8
-11178
9975.25
-10598.3
9241.08
-10047.8
8543.37
-9525.87
7880.85
-9030
7251.41
-8559.34
6653.31
-8112.72
6085.46
-7689.17
5545.77
-7287.21
5033.27
-6906.15
4546.51
-6544.99
4084.13
-6203.03
3645.08
-5879.68
3228.08
-5574.28
2831.69
-5286.4
2455.33
-5016.79
2097.41
-4764.66
1756.86
-4533.48
1433.01
-4321.06
1123.39
-4143.1
829.167
-3979.4
545.685
-3919.91
275.586
-3813.07
-4179.38
438071
-308487
415986
-293007
394970
-278286
375027
-264318
356067
-251039
338062
-238423
320955
-226425
304701
-215046
289256
-204213
274577
-193927
260649
-184172
247398
-174876
234824
-166067
222884
-157702
211532
-149737
200740
-142186
190508
-135005
180761
-128180
171515
-121710
162725
-115552
154392
-109719
146470
-104168
138931
-98884.4
131760
-93882
124971
-89131.6
118505
-84618.6
112378
-80327.9
106553
-76253.8
101008
-72384.5
95744.7
-68710.9
90742.9
-65222.6
85992.3
-61909.4
81476.7
-58763.8
77185.8
-55775.5
73109.1
-52938.3
69236.4
-50246.5
65554.6
-47686.7
62056.1
-45258.8
58732.3
-42952.5
55572.8
-40763.2
52570.2
-38683.6
49717.2
-36710.7
47005.1
-34835.5
44427.9
-33056.6
41979.8
-31367.9
39651.9
-29763.6
37438.6
-28240.7
35335.3
-26794.6
33336.2
-25422.4
31436.9
-24121
29630.1
-22883.3
27914.4
-21708.9
26281.1
-20593.6
24730
-19535.7
23256.9
-18532.3
21854.5
-17577.5
20522.8
-16672.7
19256
-15812.1
18053.9
-14998.4
16909.6
-14223
15821.4
-13487.2
14787.9
-12789.5
13804.8
-12127
12873.4
-11499.6
11985.2
-10901.6
11141.6
-10334.3
10341
-9797.68
9580.1
-9286.88
8856.63
-8802.41
8169.31
-8342.67
7516.35
-7906.37
6896.04
-7492.41
6306.76
-7099.9
5747.04
-6727.49
5215.26
-6374.38
4710.35
-6040.08
4230.81
-5723.49
3775.15
-5424.02
3342.26
-5141.39
2931.21
-4875.36
2540.19
-4625.76
2168.51
-4392.98
1814.41
-4179.39
1477.14
-3983.79
1154.12
-3820.09
845.927
-3671.21
546.083
-3620.07
260.117
-3527.11
-3919.27
453216
-284434
430337
-270127
408631
-256579
387995
-243682
368374
-231417
349751
-219800
332055
-208729
315227
-198218
299252
-188239
284086
-178761
269657
-169743
255964
-161182
242962
-153066
230594
-145334
218844
-137987
207683
-131025
197082
-124404
187025
-118123
177454
-112139
168369
-106467
159739
-101090
151522
-95951.3
143747
-91108.7
136339
-86474
129313
-82106
122626
-77931.2
116275
-73977.3
110242
-70220.7
104510
-66652.7
99064.8
-63265.6
93891.4
-60049.2
88975.1
-56993.1
84302.6
-54091.3
79865
-51337.9
75647.8
-48721
71639
-46237.7
67831.4
-43879
64213.1
-41640.5
60773.8
-39513.2
57504.8
-37494.2
54400.2
-35579
51448.2
-33758.7
48642.9
-32030.3
45977
-30390.7
43443.3
-28834.1
41034.3
-27354.6
38745.6
-25952
36571.4
-24620.4
34504.5
-23355.4
32538.9
-22155.4
30670.3
-21014.6
28895.6
-19934.3
27207.8
-18905.7
25605.3
-17933.1
24079.3
-17006.3
22631.3
-16129.5
21252.7
-15294.1
19944.7
-14504.1
18700.2
-13753.9
17516.4
-13039.1
16393
-12363.8
15325.8
-11722.3
14310.5
-11111.7
13344.2
-10533.3
12428.1
-9985.57
11557
-9463.23
10728.5
-8969.17
9941.67
-8500.03
9194.16
-8054.9
8483.82
-7632.34
7809.07
-7231.62
7168.11
-6851.45
6559.07
-6490.86
5980.59
-6149.01
5431.21
-5825
4909.29
-5518.16
4413.61
-5227.81
3942.77
-4953.18
3495.4
-4694.02
3070.2
-4450.16
2666.04
-4221.6
2281.6
-4008.54
1915.36
-3813.15
1566.23
-3634.66
1231.37
-3485.22
911.576
-3351.42
598.281
-3306.77
299.601
-3228.43
-3619.66
467153
-259646
443597
-246571
421199
-234182
399932
-222415
379736
-211222
360525
-200589
342284
-190488
324956
-180889
308495
-171778
292843
-163110
277986
-154886
263880
-147076
250451
-139637
237714
-132597
225611
-125883
214110
-119525
203199
-113492
192802
-107727
182951
-102288
173585
-97100.5
164675
-92180.3
156236
-87512.3
148194
-83066.9
140579
-78858.9
133314
-74841
126428
-71045.6
119884
-67432.8
113666
-64002.6
107759
-60746.2
102147
-57653.1
96811.8
-54714.5
91744.4
-51925.7
86929.8
-49276.7
82354.6
-46762.7
78008.5
-44374.9
73876.7
-42106
69950.6
-39952.9
66219.8
-37909.6
62675.4
-35968.8
59308.7
-34127.5
56106.4
-32376.7
53064.1
-30716.4
50173
-29139.2
47425.7
-27643.5
44813.6
-26222
42333.5
-24874.6
39974
-23592.4
37731.9
-22378.3
35601.4
-21225
33576.7
-20130.8
31652
-19089.9
29821.4
-18103.7
28084.9
-17169.2
26430.8
-16279.1
24860.6
-15436.1
23367.1
-14636
21948.7
-13875.7
20599.6
-13155.1
19316.9
-12471.3
18100.6
-11822.8
16942
-11205.3
15841.2
-10621.5
14795.1
-10065.6
13802.3
-9540.47
12856.2
-9039.55
11959.2
-8566.19
11106.4
-8116.34
10296
-7689.62
9525.96
-7284.88
8794.43
-6900.81
8099.35
-6536.54
7439.08
-6191.19
6811.89
-5863.67
6216.02
-5553.14
5650.21
-5259.19
5112.6
-4980.55
4601.93
-4717.14
4116.81
-4468.06
3655.95
-4233.16
3217.79
-4012
2801.31
-3805.12
2404.88
-3612.11
2027
-3435.28
1666.59
-3274.25
1320.67
-3139.3
989.744
-3020.5
664.159
-2981.19
353.79