/*--------------------------------*- C++ -*----------------------------------*\
  =========                 |
  \\      /  F ield         | OpenFOAM: The Open Source CFD Toolbox
   \\    /   O peration     | Website:  https://openfoam.org
    \\  /    A nd           | Version:  11
     \\/     M anipulation  |
\*---------------------------------------------------------------------------*/
FoamFile
{
    format      ascii;
    class       volVectorField;
    location    "300";
    object      U;
}
// * * * * * * * * * * * * * * * * * * * * * * * * * * * * * * * * * * * * * //

dimensions      [0 1 -1 0 0 0 0];

internalField   nonuniform List<vector> 
31595
(
(25.5178 3.30877 -9.05183e-19)
(25.6775 3.4042 3.32717e-19)
(25.6201 3.43177 1.37e-18)
(25.6346 3.4241 1.53635e-18)
(25.6134 3.42684 0)
(25.6058 3.43166 0)
(25.5832 3.43312 0)
(25.5647 3.43507 1.17177e-18)
(25.5409 3.43708 3.55921e-20)
(25.5169 3.43928 0)
(25.4903 3.44158 0)
(25.4628 3.44418 8.64395e-19)
(25.4336 3.44705 -9.10815e-19)
(25.4032 3.45026 1.04879e-18)
(25.3714 3.45382 -1.1052e-18)
(25.3383 3.45776 1.23426e-18)
(25.3038 3.46211 0)
(25.2681 3.4669 -1.54099e-18)
(25.231 3.47214 3.27005e-18)
(25.1926 3.47786 -9.3313e-19)
(25.1527 3.48408 9.83548e-19)
(25.1114 3.49083 0)
(25.0687 3.49814 0)
(25.0244 3.50601 1.36619e-18)
(24.9786 3.51448 -6.89146e-19)
(24.9312 3.52356 3.39027e-20)
(24.8821 3.53328 -1.73832e-18)
(24.8313 3.54365 -9.9767e-19)
(24.7787 3.5547 2.14815e-18)
(24.7242 3.56643 -2.32548e-18)
(24.6679 3.57887 0)
(24.6096 3.59201 -6.94541e-19)
(24.5492 3.60588 7.98013e-19)
(24.4867 3.62047 -8.41798e-19)
(24.4221 3.63579 9.4915e-19)
(24.3551 3.65183 -1.05609e-18)
(24.2858 3.66859 5.59889e-19)
(24.214 3.68606 1.86397e-18)
(24.1396 3.70423 0)
(24.0625 3.72307 -7.65928e-19)
(23.9827 3.74258 1.63794e-18)
(23.8998 3.76272 0)
(23.8139 3.78347 0)
(23.7247 3.8048 -5.6228e-19)
(23.6322 3.82667 2.35735e-18)
(23.536 3.84904 0)
(23.436 3.87188 -7.33532e-19)
(23.3321 3.89513 1.56951e-18)
(23.2239 3.91875 -8.83928e-19)
(23.1112 3.94269 9.60015e-19)
(22.9938 3.96688 -2.60441e-18)
(22.8713 3.99127 5.6436e-19)
(22.7435 4.0158 -1.89704e-18)
(22.61 4.04038 2.76663e-18)
(22.4704 4.06495 -7.37609e-19)
(22.3244 4.08942 -1.66749e-18)
(22.1714 4.11369 -9.42463e-19)
(22.0112 4.13766 -5.3975e-19)
(21.843 4.16122 -1.14977e-18)
(21.6664 4.18423 1.83635e-18)
(21.4807 4.20656 -1.10946e-20)
(21.2853 4.22803 7.5169e-19)
(21.0794 4.24845 4.03445e-20)
(20.8623 4.26763 -4.25485e-19)
(20.6329 4.2853 5.35775e-19)
(20.3904 4.30117 -2.25825e-18)
(20.1335 4.31492 -6.34796e-19)
(19.861 4.32614 6.9962e-19)
(19.5716 4.33437 2.34116e-18)
(19.2636 4.33906 5.33336e-20)
(18.9352 4.33953 -1.40135e-18)
(18.5844 4.33498 2.30837e-20)
(18.2089 4.32446 1.22457e-18)
(17.806 4.30673 0)
(17.3727 4.28035 1.53776e-18)
(16.9053 4.24346 0)
(16.3996 4.19376 9.90549e-19)
(15.8509 4.1283 0)
(15.2533 4.04331 0)
(14.5999 3.93393 0)
(13.8827 3.79368 1.74069e-18)
(13.092 3.61407 1.01902e-18)
(12.2157 3.38356 -1.83017e-18)
(11.2405 3.08597 -1.49654e-18)
(10.1484 2.70134 8.77706e-19)
(8.9231 2.19107 5.78346e-19)
(7.53895 1.54085 7.73194e-19)
(5.99289 0.581724 -1.04955e-18)
(4.25863 -0.317901 1.61206e-18)
(25.6354 3.3513 2.84504e-18)
(25.6453 3.40582 1.51414e-18)
(25.6473 3.44969 1.28997e-18)
(25.6344 3.44255 -4.42333e-18)
(25.6207 3.44459 0)
(25.6061 3.45021 0)
(25.587 3.45319 1.9753e-18)
(25.5661 3.45567 0)
(25.5433 3.45861 0)
(25.5188 3.46168 -2.6472e-18)
(25.4927 3.46493 -4.4198e-18)
(25.4653 3.46848 3.19016e-18)
(25.4364 3.47238 1.76883e-18)
(25.4063 3.47664 3.95535e-18)
(25.3748 3.48131 -2.11596e-18)
(25.3421 3.4864 -1.19772e-18)
(25.3081 3.49195 1.33912e-18)
(25.2728 3.49798 -4.26953e-18)
(25.2362 3.50452 2.41448e-20)
(25.1982 3.51158 -3.43915e-18)
(25.1589 3.51919 0)
(25.1181 3.52737 0)
(25.076 3.53616 0)
(25.0323 3.54556 0)
(24.9871 3.5556 2.78326e-18)
(24.9402 3.56631 0)
(24.8918 3.5777 3.3922e-18)
(24.8416 3.58979 0)
(24.7897 3.6026 2.03119e-18)
(24.7359 3.61615 1.13559e-18)
(24.6802 3.63046 -1.26372e-18)
(24.6226 3.64552 1.31529e-18)
(24.5629 3.66136 1.46432e-18)
(24.5012 3.67798 -1.67437e-18)
(24.4372 3.69539 1.76644e-18)
(24.3709 3.71358 -1.00923e-18)
(24.3022 3.73257 2.1591e-18)
(24.2311 3.75233 -1.20129e-18)
(24.1573 3.77286 0)
(24.0809 3.79416 0)
(24.0015 3.8162 -3.17056e-18)
(23.9193 3.83898 -1.68415e-20)
(23.8339 3.86246 0)
(23.7452 3.88662 2.06678e-18)
(23.653 3.91145 -2.25476e-18)
(23.5572 3.9369 -1.23333e-18)
(23.4576 3.96294 0)
(23.3539 3.98955 0)
(23.246 4.01667 0)
(23.1334 4.04426 9.2047e-19)
(23.0161 4.07229 1.01139e-18)
(22.8937 4.10069 1.11161e-18)
(22.7658 4.12941 1.22217e-18)
(22.6321 4.1584 -1.3442e-18)
(22.4923 4.18758 7.0968e-19)
(22.346 4.21689 -3.14146e-20)
(22.1926 4.24624 1.78483e-18)
(22.0318 4.27555 -9.79173e-19)
(21.863 4.30471 1.07639e-18)
(21.6855 4.33361 -1.17002e-18)
(21.4989 4.36212 -6.21931e-19)
(21.3023 4.3901 -2.16807e-18)
(21.0951 4.41738 8.11435e-19)
(20.8764 4.44376 -9.13568e-19)
(20.6452 4.46901 -2.3174e-20)
(20.4005 4.49288 3.32442e-18)
(20.1412 4.51505 -1.22138e-18)
(19.8659 4.53516 2.72546e-18)
(19.5732 4.55276 -2.23359e-18)
(19.2614 4.56733 8.56815e-19)
(18.9286 4.57824 -9.68838e-19)
(18.5728 4.58472 1.04043e-18)
(18.1915 4.58582 -1.80649e-18)
(17.7818 4.58037 1.31088e-18)
(17.3405 4.56693 -7.78237e-19)
(16.8638 4.54368 0)
(16.3472 4.5083 1.95838e-18)
(15.7857 4.45785 2.2413e-18)
(15.1729 4.3885 2.57939e-18)
(14.5016 4.29525 7.66545e-19)
(13.7628 4.17144 -3.49304e-18)
(12.9462 4.00821 -1.05148e-18)
(12.0387 3.7933 -2.45617e-18)
(11.0257 3.5097 3.70174e-18)
(9.88761 3.13494 1.84506e-18)
(8.60738 2.62944 -4.1051e-18)
(7.15522 1.96698 -2.35399e-18)
(5.54064 0.992476 -5.59177e-18)
(3.64853 0.0025538 9.32783e-18)
(25.6601 3.39866 -2.33884e-18)
(25.654 3.42561 -2.45123e-18)
(25.6565 3.46648 2.57398e-18)
(25.6414 3.46293 1.43829e-19)
(25.6256 3.46351 -3.22268e-18)
(25.6096 3.46918 3.39431e-18)
(25.5905 3.47302 3.82306e-18)
(25.5692 3.47617 -2.06129e-18)
(25.5464 3.4798 0)
(25.522 3.4837 2.57747e-18)
(25.4961 3.48784 2.83979e-18)
(25.4689 3.49232 -1.56397e-18)
(25.4404 3.4972 -1.7223e-18)
(25.4106 3.5025 -1.95589e-18)
(25.3795 3.50825 2.02894e-18)
(25.3473 3.51448 0)
(25.3137 3.52121 2.56607e-18)
(25.2789 3.52846 2.81431e-18)
(25.2428 3.53627 0)
(25.2054 3.54465 -1.62512e-18)
(25.1666 3.55363 0)
(25.1265 3.56324 -2.00179e-18)
(25.0849 3.57348 0)
(25.0419 3.5844 4.91834e-18)
(24.9973 3.596 -5.25932e-18)
(24.9512 3.60832 -5.8205e-18)
(24.9034 3.62136 -3.29732e-18)
(24.8539 3.63517 1.74949e-18)
(24.8027 3.64974 -1.97889e-18)
(24.7496 3.66511 0)
(24.6947 3.68128 0)
(24.6378 3.69827 -1.32836e-18)
(24.5789 3.71609 2.77081e-18)
(24.5178 3.73476 1.53919e-18)
(24.4546 3.75428 0)
(24.389 3.77465 0)
(24.3211 3.79588 -2.12165e-18)
(24.2506 3.81797 2.23939e-18)
(24.1775 3.84091 -1.27895e-18)
(24.1017 3.8647 5.47878e-18)
(24.023 3.88933 3.07905e-18)
(23.9414 3.91479 4.53314e-20)
(23.8565 3.94106 -1.804e-18)
(23.7684 3.96813 -3.59964e-20)
(23.6767 3.99598 2.2152e-18)
(23.5814 4.02458 -2.39048e-18)
(23.4821 4.05391 1.35215e-18)
(23.3788 4.08395 1.37112e-20)
(23.2711 4.11466 0)
(23.1588 4.14601 -1.74377e-18)
(23.0417 4.17796 -1.91767e-18)
(22.9193 4.21047 2.1096e-18)
(22.7915 4.2435 -1.12726e-18)
(22.6578 4.277 -2.57933e-18)
(22.5178 4.31092 -3.62005e-20)
(22.3712 4.3452 1.59547e-18)
(22.2175 4.37976 -1.69121e-18)
(22.0562 4.41454 -9.70192e-19)
(21.8867 4.44945 3.0971e-18)
(21.7086 4.48439 1.11965e-18)
(21.521 4.51925 1.25663e-18)
(21.3234 4.55391 1.42523e-18)
(21.115 4.58821 -1.55905e-18)
(20.8947 4.62199 0)
(20.6618 4.65504 0)
(20.4152 4.68713 -4.30548e-18)
(20.1535 4.71796 -1.20301e-18)
(19.8756 4.7472 0)
(19.5798 4.77445 0)
(19.2644 4.7992 -1.66536e-18)
(18.9276 4.82088 0)
(18.567 4.83874 -3.14411e-18)
(18.1801 4.85186 1.14979e-18)
(17.764 4.85914 2.75894e-20)
(17.3152 4.85914 -3.73261e-18)
(16.8298 4.85009 8.34642e-19)
(16.303 4.82968 -2.89458e-18)
(15.7293 4.79499 -3.32957e-18)
(15.1021 4.74213 -2.58054e-18)
(14.4135 4.66605 2.98898e-18)
(13.654 4.55988 -3.50432e-18)
(12.8123 4.41447 2.07808e-18)
(11.8742 4.21692 2.49283e-18)
(10.8237 3.94944 -6.86888e-18)
(9.63923 3.58717 9.30553e-19)
(8.30227 3.08948 1.82441e-18)
(6.78022 2.41857 8.18325e-19)
(5.08616 1.4326 1.34541e-17)
(3.06465 0.354013 -1.56599e-17)
(25.6775 3.43823 -2.01357e-18)
(25.6629 3.44952 -2.35953e-18)
(25.663 3.48457 -2.35766e-18)
(25.6475 3.48304 2.79265e-18)
(25.6304 3.48287 6.42638e-20)
(25.6134 3.48821 0)
(25.5941 3.49264 6.21619e-20)
(25.5727 3.49642 -2.02068e-18)
(25.5499 3.50068 2.18662e-18)
(25.5257 3.50536 0)
(25.5001 3.51036 2.77257e-18)
(25.4731 3.51574 -2.92139e-18)
(25.445 3.52159 -3.35921e-18)
(25.4156 3.5279 1.71712e-18)
(25.385 3.53472 0)
(25.3532 3.54206 0)
(25.3202 3.54995 -2.38303e-18)
(25.2859 3.55842 -2.67262e-18)
(25.2504 3.56748 2.8829e-18)
(25.2135 3.57717 6.50932e-18)
(25.1754 3.58751 3.37575e-20)
(25.1359 3.59851 -3.85764e-18)
(25.095 3.61021 -8.95779e-20)
(25.0526 3.62262 -6.96308e-20)
(25.0088 3.63577 5.33408e-20)
(24.9634 3.64968 2.85859e-18)
(24.9163 3.66437 0)
(24.8676 3.67988 1.74664e-18)
(24.8171 3.6962 -3.76141e-18)
(24.7649 3.71337 -2.12648e-18)
(24.7107 3.7314 -9.24921e-20)
(24.6546 3.75032 -2.06872e-20)
(24.5965 3.77013 -2.76571e-18)
(24.5363 3.79084 0)
(24.4738 3.81247 0)
(24.4091 3.83503 -1.85246e-18)
(24.3419 3.85851 -1.60775e-20)
(24.2722 3.88294 0)
(24.1999 3.9083 0)
(24.1249 3.9346 -2.66623e-18)
(24.0469 3.96184 -1.46408e-18)
(23.966 3.99 3.15175e-18)
(23.8818 4.01909 3.55151e-18)
(23.7943 4.04909 -1.92415e-18)
(23.7033 4.08 4.24483e-18)
(23.6085 4.11178 6.43764e-20)
(23.5099 4.14444 0)
(23.407 4.17796 -1.41419e-18)
(23.2998 4.2123 3.05245e-18)
(23.1879 4.24744 3.43953e-18)
(23.0711 4.28337 -1.79683e-18)
(22.9491 4.32006 -2.06952e-18)
(22.8214 4.35746 2.27815e-18)
(22.6879 4.39554 0)
(22.548 4.43427 -2.71862e-18)
(22.4014 4.47359 0)
(22.2476 4.51345 0)
(22.0861 4.55381 0)
(21.9164 4.59457 -2.0485e-18)
(21.7378 4.63568 1.148e-18)
(21.5497 4.67703 1.24831e-18)
(21.3514 4.71852 0)
(21.142 4.76003 6.51035e-20)
(20.9207 4.8014 2.08408e-20)
(20.6865 4.84246 0)
(20.4382 4.88301 1.0354e-18)
(20.1747 4.92279 1.17051e-18)
(19.8945 4.96149 -2.5841e-18)
(19.5962 4.99876 0)
(19.2778 5.03413 0)
(18.9373 5.06706 0)
(18.5725 5.09686 1.01088e-18)
(18.1807 5.12267 1.13255e-18)
(17.7588 5.14342 0)
(17.3031 5.15775 -3.09371e-20)
(16.8095 5.16394 5.02156e-18)
(16.273 5.15974 9.48702e-19)
(15.6877 5.14224 2.22889e-18)
(15.0466 5.10759 -4.48712e-18)
(14.3412 5.0507 -5.01305e-20)
(13.5612 4.9646 8.76214e-19)
(12.6945 4.8399 -1.07959e-18)
(11.7254 4.66315 1.24051e-18)
(10.6366 4.41583 6.24888e-18)
(9.40396 4.07077 0)
(8.00681 3.58602 5.83961e-18)
(6.40994 2.91176 6.31881e-18)
(4.62393 1.91891 -1.09593e-17)
(2.45797 0.756602 9.82532e-18)
(25.6849 3.47112 3.97608e-18)
(25.6692 3.4728 0)
(25.6682 3.50269 2.3097e-18)
(25.6529 3.50254 5.26849e-18)
(25.635 3.50208 -2.78977e-18)
(25.6175 3.50706 -3.14732e-18)
(25.5981 3.51192 7.13426e-18)
(25.5767 3.51628 -7.75918e-18)
(25.554 3.52116 0)
(25.5299 3.52657 2.42346e-18)
(25.5046 3.53239 -2.55345e-18)
(25.4781 3.53867 0)
(25.4503 3.54545 0)
(25.4214 3.55276 0)
(25.3913 3.56063 3.78049e-18)
(25.36 3.56907 0)
(25.3275 3.57811 2.33542e-18)
(25.2939 3.58777 -2.59947e-18)
(25.259 3.59808 -8.53205e-20)
(25.2228 3.60906 -3.03965e-18)
(25.1853 3.62073 -3.53107e-18)
(25.1465 3.63312 7.40057e-18)
(25.1063 3.64624 0)
(25.0647 3.66014 4.44016e-18)
(25.0216 3.67482 4.93679e-18)
(24.977 3.69031 -9.14389e-20)
(24.9307 3.70664 2.92482e-18)
(24.8828 3.72383 0)
(24.8332 3.7419 0)
(24.7818 3.76086 4.02451e-18)
(24.7285 3.78075 -2.06062e-18)
(24.6732 3.80158 -2.28897e-18)
(24.616 3.82337 2.59471e-18)
(24.5566 3.84613 2.85065e-18)
(24.495 3.86987 -3.23635e-18)
(24.4311 3.89462 5.19342e-18)
(24.3648 3.92038 5.7264e-20)
(24.296 3.94715 0)
(24.2246 3.97495 -2.28102e-18)
(24.1504 4.00378 0)
(24.0732 4.03364 2.75359e-18)
(23.9931 4.06454 -6.11883e-18)
(23.9097 4.09647 -1.71634e-18)
(23.823 4.12944 -5.36669e-20)
(23.7327 4.16343 -4.12501e-18)
(23.6386 4.19844 4.47004e-18)
(23.5406 4.23447 9.6301e-20)
(23.4384 4.2715 -2.6497e-18)
(23.3318 4.30952 1.45529e-18)
(23.2205 4.34852 -1.60367e-18)
(23.1042 4.38849 1.81569e-18)
(22.9826 4.4294 -6.12024e-20)
(22.8553 4.47123 -8.61704e-20)
(22.7221 4.51397 2.35963e-18)
(22.5825 4.55758 2.67487e-18)
(22.4361 4.60203 -1.49341e-18)
(22.2824 4.64729 -6.45895e-20)
(22.1209 4.69332 -7.16534e-20)
(21.951 4.74005 3.88801e-18)
(21.7722 4.78744 -1.11392e-18)
(21.5838 4.83541 -8.85738e-20)
(21.385 4.88388 3.96627e-18)
(21.1749 4.93275 2.99065e-18)
(20.9528 4.9819 -4.93146e-18)
(20.7175 5.03118 -1.87379e-18)
(20.4679 5.08043 2.00049e-18)
(20.2028 5.12941 2.29039e-18)
(19.9208 5.17787 3.39704e-20)
(19.6201 5.22548 0)
(19.2989 5.27184 -1.63074e-18)
(18.9553 5.31645 2.6692e-18)
(18.5866 5.35869 -9.86978e-19)
(18.1902 5.39775 0)
(17.7628 5.43265 -1.32101e-18)
(17.3006 5.46211 1.43414e-18)
(16.7992 5.48445 -3.36038e-18)
(16.2533 5.49752 -3.82032e-18)
(15.6567 5.49849 4.40765e-18)
(15.0019 5.48358 5.13716e-18)
(14.2798 5.44772 -1.86813e-20)
(13.4793 5.38389 3.56178e-18)
(12.5872 5.28258 1.09176e-18)
(11.5864 5.12991 -6.41738e-18)
(10.4577 4.9067 -3.20841e-18)
(9.17419 4.58372 0)
(7.71226 4.11727 -5.45809e-18)
(6.0328 3.44619 -8.78748e-18)
(4.1318 2.45515 1.4161e-17)
(1.82818 1.20919 0)
(25.6909 3.49813 0)
(25.6741 3.49452 0)
(25.6725 3.52019 0)
(25.6576 3.52111 -2.53447e-18)
(25.6393 3.52071 -2.88724e-18)
(25.6216 3.52545 3.04151e-18)
(25.6022 3.5307 -6.35903e-20)
(25.581 3.53564 -3.72887e-18)
(25.5584 3.54113 -4.10554e-18)
(25.5347 3.54726 0)
(25.5098 3.55389 -4.96775e-18)
(25.4836 3.56104 0)
(25.4563 3.56875 3.00416e-18)
(25.4279 3.57705 0)
(25.3983 3.58595 -3.71599e-18)
(25.3676 3.59548 4.13226e-18)
(25.3358 3.60565 3.50247e-20)
(25.3028 3.61649 0)
(25.2685 3.62803 2.65322e-18)
(25.2331 3.64028 -2.94772e-18)
(25.1963 3.65327 -1.02685e-19)
(25.1582 3.66702 -3.52452e-18)
(25.1188 3.68157 3.87412e-18)
(25.078 3.69693 -8.62366e-18)
(25.0357 3.71312 -2.39949e-18)
(24.9919 3.73018 2.52646e-20)
(24.9465 3.74813 -2.80809e-18)
(24.8995 3.76699 0)
(24.8507 3.78679 3.53397e-18)
(24.8002 3.80754 -3.59628e-18)
(24.7478 3.82928 -1.98237e-18)
(24.6935 3.85202 4.58787e-18)
(24.6372 3.87578 -5.12735e-18)
(24.5788 3.90058 -2.9164e-18)
(24.5181 3.92645 -1.22593e-19)
(24.4552 3.95338 6.58296e-18)
(24.3898 3.98141 0)
(24.322 4.01054 0)
(24.2515 4.04079 -2.01305e-20)
(24.1782 4.07216 -1.5174e-20)
(24.102 4.10466 -2.7108e-18)
(24.0227 4.13831 -2.71745e-20)
(23.9402 4.17311 -1.67295e-18)
(23.8544 4.20906 3.44477e-18)
(23.7649 4.24617 1.91984e-18)
(23.6717 4.28443 0)
(23.5745 4.32386 0)
(23.4731 4.36444 2.6583e-18)
(23.3672 4.40618 -5.70928e-18)
(23.2566 4.44908 0)
(23.1409 4.49312 -5.20981e-18)
(23.0199 4.53831 -2.01014e-18)
(22.8932 4.58464 2.0705e-18)
(22.7605 4.63208 0)
(22.6214 4.68064 2.54023e-18)
(22.4753 4.7303 -1.44738e-18)
(22.3219 4.78102 3.13488e-18)
(22.1607 4.8328 -5.12401e-18)
(21.991 4.8856 -3.63728e-20)
(21.8122 4.93937 0)
(21.6236 4.99408 -2.36932e-18)
(21.4246 5.04966 -2.62749e-18)
(21.2142 5.10603 1.47842e-18)
(20.9915 5.16311 2.18528e-20)
(20.7554 5.22079 1.75402e-18)
(20.5049 5.27893 -4.01714e-18)
(20.2385 5.33733 1.04283e-18)
(19.9549 5.3958 2.53098e-18)
(19.6523 5.45405 -1.36565e-18)
(19.3288 5.51174 0)
(18.9823 5.56842 3.49489e-18)
(18.6102 5.62353 3.94299e-18)
(18.2096 5.67638 0)
(17.7771 5.72602 -1.30616e-18)
(17.3089 5.77127 2.33782e-20)
(16.8001 5.81057 -4.9261e-18)
(16.2454 5.84187 2.85825e-18)
(15.6379 5.86245 2.16945e-18)
(14.9698 5.86861 -1.02813e-17)
(14.2313 5.85537 -1.5577e-18)
(13.4106 5.81574 -9.21873e-19)
(12.493 5.74011 -4.35702e-18)
(11.4601 5.61426 5.22861e-18)
(10.2905 5.41843 -5.8383e-18)
(8.95381 5.12145 1.04634e-18)
(7.4232 4.67742 0)
(5.65126 4.01676 0)
(3.60224 3.0356 1.93167e-18)
(1.19349 1.68821 -6.39352e-18)
(25.6958 3.5206 0)
(25.678 3.51422 0)
(25.6761 3.53649 0)
(25.6618 3.53847 2.00987e-19)
(25.6435 3.53847 -2.68702e-18)
(25.6257 3.54318 6.01873e-18)
(25.6065 3.54883 -6.5739e-18)
(25.5856 3.55438 1.09964e-17)
(25.5633 3.56051 1.2523e-19)
(25.5399 3.56736 0)
(25.5154 3.57479 4.89706e-18)
(25.4898 3.58281 2.72202e-18)
(25.463 3.59144 -5.83027e-18)
(25.4351 3.60072 0)
(25.4062 3.61064 3.61656e-18)
(25.3761 3.62124 -3.81171e-18)
(25.3449 3.63253 4.16116e-20)
(25.3126 3.64453 -4.60652e-18)
(25.2791 3.65728 2.42703e-20)
(25.2443 3.67078 9.264e-20)
(25.2084 3.68508 -1.11699e-19)
(25.1711 3.70018 6.83842e-18)
(25.1325 3.71612 -1.01838e-19)
(25.0925 3.73293 8.28642e-18)
(25.0511 3.75062 0)
(25.0082 3.76923 0)
(24.9637 3.78879 0)
(24.9176 3.8093 0)
(24.8698 3.83082 -6.67164e-18)
(24.8203 3.85335 7.28239e-18)
(24.7689 3.87692 8.05711e-18)
(24.7155 3.90156 -2.212e-18)
(24.6602 3.92729 -4.86497e-18)
(24.6028 3.95413 2.61234e-18)
(24.5432 3.9821 0)
(24.4813 4.01123 -9.7151e-18)
(24.4169 4.04153 -3.62762e-18)
(24.3501 4.07302 -1.98721e-20)
(24.2806 4.10571 0)
(24.2084 4.13964 6.24635e-20)
(24.1332 4.17479 0)
(24.055 4.21121 -2.89613e-18)
(23.9735 4.24888 6.21891e-18)
(23.8886 4.28783 -3.47327e-18)
(23.8001 4.32808 -1.92629e-18)
(23.7079 4.36962 -8.25207e-20)
(23.6116 4.41246 2.24161e-18)
(23.5111 4.45663 0)
(23.4061 4.50212 -2.73434e-18)
(23.2963 4.54894 0)
(23.1815 4.5971 6.72048e-18)
(23.0613 4.64661 -1.89214e-18)
(22.9354 4.69747 2.00503e-18)
(22.8034 4.74967 2.30313e-18)
(22.6649 4.80324 -4.87717e-18)
(22.5195 4.85815 -2.69829e-18)
(22.3666 4.91441 0)
(22.2058 4.97201 3.39889e-18)
(22.0365 5.03095 -1.88117e-18)
(21.8581 5.0912 0)
(21.6697 5.15274 -2.26426e-18)
(21.4708 5.21554 0)
(21.2603 5.27954 0)
(21.0374 5.3447 -1.60643e-18)
(20.801 5.41094 3.50563e-18)
(20.5499 5.47814 2.05443e-18)
(20.2827 5.54619 9.4884e-20)
(19.998 5.61491 7.04443e-20)
(19.694 5.68408 0)
(19.3687 5.7534 0)
(19.0199 5.82252 -5.16136e-18)
(18.6449 5.89095 -3.86062e-18)
(18.2409 5.95806 -6.58156e-18)
(17.8041 6.02304 -1.29506e-18)
(17.3306 6.08478 4.31349e-18)
(16.8154 6.14188 3.3283e-18)
(16.2526 6.19241 9.78415e-19)
(15.6353 6.23379 -5.52947e-18)
(14.955 6.26248 5.19859e-18)
(14.2013 6.27364 0)
(13.3614 6.26038 -3.61919e-18)
(12.4195 6.21315 6.68885e-18)
(11.3555 6.11749 -2.65153e-18)
(10.1456 5.95329 6.90407e-18)
(8.75552 5.68771 0)
(7.15518 5.27317 0)
(5.2823 4.63731 1.25014e-18)
(3.07849 3.67259 -2.44429e-18)
(0.595942 2.19305 -3.41e-18)
(25.7003 3.53934 0)
(25.6817 3.5319 0)
(25.6794 3.55149 -4.26464e-18)
(25.6657 3.55455 9.6752e-18)
(25.6476 3.55522 -1.0509e-17)
(25.6299 3.56009 -5.76849e-18)
(25.611 3.5662 -3.2708e-18)
(25.5904 3.5724 3.4861e-18)
(25.5685 3.57921 1.64368e-19)
(25.5456 3.58679 -8.51262e-18)
(25.5216 3.59503 -3.11578e-20)
(25.4965 3.60392 -5.065e-18)
(25.4703 3.61347 -2.68118e-18)
(25.443 3.62371 1.8042e-20)
(25.4147 3.63465 1.23497e-19)
(25.3853 3.6463 -7.49681e-18)
(25.3549 3.6587 8.08852e-18)
(25.3233 3.67185 1.65805e-19)
(25.2905 3.68579 -2.33228e-18)
(25.2566 3.70053 -8.05787e-18)
(25.2215 3.71611 -3.04391e-18)
(25.1851 3.73255 -3.24916e-18)
(25.1474 3.74987 -3.67742e-18)
(25.1083 3.7681 2.96707e-20)
(25.0678 3.78728 -1.30812e-17)
(25.0258 3.80742 7.17826e-18)
(24.9823 3.82856 -5.19801e-18)
(24.9372 3.85072 -1.07461e-19)
(24.8904 3.87393 -3.54757e-20)
(24.8419 3.89822 7.02934e-18)
(24.7915 3.92362 -7.69931e-18)
(24.7393 3.95014 -4.30249e-18)
(24.685 3.97783 9.33495e-18)
(24.6287 4.0067 -2.51227e-18)
(24.5702 4.03678 -5.64827e-18)
(24.5094 4.06809 6.17492e-18)
(24.4462 4.10065 3.45063e-18)
(24.3805 4.1345 3.7931e-18)
(24.3121 4.16965 -4.05026e-18)
(24.241 4.20612 2.29231e-18)
(24.1669 4.24393 0)
(24.0898 4.28311 9.77395e-20)
(24.0095 4.32367 -2.95056e-18)
(23.9257 4.36564 3.26126e-18)
(23.8383 4.40903 1.85913e-18)
(23.7472 4.45386 -4.01265e-18)
(23.652 4.50015 2.16492e-18)
(23.5525 4.54791 2.48176e-18)
(23.4486 4.59717 -2.64887e-18)
(23.3399 4.64795 2.89514e-18)
(23.2261 4.70025 -6.50518e-18)
(23.1068 4.75411 1.83295e-18)
(22.9819 4.80953 -1.94288e-18)
(22.8508 4.86653 -2.23398e-18)
(22.7132 4.92514 7.2838e-18)
(22.5686 4.98536 -5.25763e-18)
(22.4166 5.04721 -1.5098e-18)
(22.2565 5.1107 -1.62768e-18)
(22.0879 5.17584 1.85252e-18)
(21.91 5.24264 -7.99803e-18)
(21.7222 5.31111 4.44321e-18)
(21.5236 5.38122 -2.53521e-18)
(21.3135 5.45296 4.02052e-18)
(21.0908 5.52633 4.54374e-18)
(20.8544 5.60127 0)
(20.6031 5.67771 0)
(20.3356 5.75559 2.19151e-18)
(20.0503 5.83478 -2.35074e-18)
(19.7454 5.91511 2.66903e-18)
(19.4189 5.99638 0)
(19.0685 6.07829 6.29126e-20)
(18.6914 6.16044 -3.83946e-18)
(18.2846 6.24232 -1.05085e-18)
(17.8444 6.32321 1.22553e-18)
(17.3665 6.40216 0)
(16.8458 6.47791 4.96031e-18)
(16.2761 6.54869 -1.86164e-18)
(15.6502 6.61212 1.13884e-18)
(14.9589 6.66489 -2.60675e-18)
(14.1913 6.70237 1.50422e-18)
(13.3336 6.71791 3.7186e-18)
(12.369 6.70213 0)
(11.2753 6.64061 0)
(10.0265 6.51319 7.14523e-18)
(8.58384 6.28576 -9.56682e-18)
(6.91416 5.91094 0)
(4.93274 5.31515 0)
(2.62219 4.36041 -2.66637e-17)
(-0.0352801 2.79027 -3.21305e-17)
(25.7047 3.55506 3.56638e-18)
(25.6853 3.54772 -8.99111e-21)
(25.6825 3.56518 -4.2465e-18)
(25.6695 3.5693 0)
(25.6517 3.57087 -5.26489e-18)
(25.6341 3.57609 1.12644e-17)
(25.6156 3.58274 -6.12093e-18)
(25.5955 3.58964 1.19623e-19)
(25.5741 3.59717 -3.66512e-18)
(25.5517 3.6055 0)
(25.5282 3.61457 4.57001e-18)
(25.5037 3.62432 5.02074e-18)
(25.4781 3.63479 -2.62063e-18)
(25.4516 3.64599 2.72959e-18)
(25.424 3.65793 6.54679e-18)
(25.3953 3.67063 -7.23252e-18)
(25.3656 3.68412 3.7614e-18)
(25.3348 3.6984 4.41731e-18)
(25.3029 3.71352 0)
(25.2699 3.72948 1.05034e-17)
(25.2356 3.74633 -5.78921e-18)
(25.2001 3.76408 9.45172e-18)
(25.1633 3.78276 0)
(25.1252 3.80241 -3.9143e-18)
(25.0857 3.82304 4.10253e-18)
(25.0447 3.84469 4.53674e-18)
(25.0023 3.8674 2.58259e-18)
(24.9582 3.89118 -2.83827e-18)
(24.9125 3.91608 3.11971e-18)
(24.8651 3.94211 0)
(24.8158 3.96932 3.64836e-18)
(24.7647 3.99772 -1.55212e-19)
(24.7116 4.02734 1.96219e-18)
(24.6564 4.05823 -1.00081e-19)
(24.5991 4.0904 8.17356e-18)
(24.5395 4.12389 1.20566e-19)
(24.4775 4.15872 1.32378e-19)
(24.413 4.19491 -7.07259e-18)
(24.3458 4.23251 4.01981e-18)
(24.2759 4.27153 -2.2234e-18)
(24.2031 4.312 -9.64565e-20)
(24.1272 4.35395 5.2594e-18)
(24.0481 4.39741 -2.96103e-18)
(23.9655 4.44239 -3.24952e-18)
(23.8794 4.48894 -1.29137e-19)
(23.7895 4.53707 9.5807e-18)
(23.6955 4.58681 -4.26671e-18)
(23.5973 4.63819 2.30333e-18)
(23.4945 4.69124 0)
(23.387 4.74599 -2.81194e-18)
(23.2743 4.80246 6.29465e-18)
(23.1563 4.86069 1.77499e-18)
(23.0325 4.92071 -3.70435e-18)
(22.9025 4.98255 -2.07907e-18)
(22.766 5.04624 0)
(22.6224 5.11181 2.62645e-18)
(22.4714 5.1793 1.01989e-19)
(22.3123 5.24874 1.02245e-19)
(22.1446 5.32015 0)
(21.9675 5.39358 7.8241e-18)
(21.7805 5.46905 0)
(21.5827 5.54657 2.38737e-18)
(21.3732 5.62616 -2.7234e-18)
(21.1509 5.70786 -3.03568e-18)
(20.9149 5.79164 -1.59646e-18)
(20.6639 5.8775 -1.83508e-18)
(20.3964 5.9654 0)
(20.1109 6.05528 0)
(19.8056 6.14706 -2.67581e-18)
(19.4783 6.24058 -1.52899e-18)
(19.1267 6.33565 1.71997e-18)
(18.748 6.43195 3.86055e-18)
(18.339 6.52909 6.61853e-18)
(17.896 6.6265 -2.42669e-18)
(17.4143 6.72339 2.81792e-18)
(16.8888 6.81865 -5.92217e-20)
(16.3129 6.91076 3.7664e-18)
(15.679 6.99757 0)
(14.9775 7.07606 0)
(14.1968 7.14192 -6.16835e-18)
(13.3221 7.18885 1.9297e-18)
(12.3352 7.20788 1.1398e-18)
(11.212 7.18486 1.40923e-18)
(9.92385 7.1 -5.61945e-18)
(8.42736 6.91858 -2.38386e-18)
(6.68519 6.59617 1.32269e-17)
(4.58888 6.0478 -2.22007e-17)
(2.18966 5.10628 -2.99978e-18)
(-0.750912 3.49808 1.91076e-19)
(25.7089 3.56826 2.79707e-18)
(25.689 3.5618 0)
(25.6856 3.57761 4.15479e-18)
(25.6732 3.58278 0)
(25.6559 3.5854 5.11506e-18)
(25.6386 3.59115 -5.38881e-18)
(25.6205 3.5984 3.01627e-18)
(25.6009 3.60604 6.68831e-18)
(25.58 3.61433 -7.23846e-18)
(25.5582 3.62346 -1.60679e-19)
(25.5353 3.63335 4.26943e-18)
(25.5114 3.64398 0)
(25.4866 3.65537 5.32571e-18)
(25.4607 3.66752 -5.84847e-18)
(25.4339 3.68046 -6.33784e-18)
(25.406 3.69419 3.38496e-18)
(25.3772 3.70875 -1.36337e-19)
(25.3472 3.72416 0)
(25.3162 3.74043 -4.52024e-18)
(25.284 3.7576 -1.01043e-17)
(25.2507 3.77569 2.82311e-18)
(25.2162 3.79473 -6.09892e-18)
(25.1804 3.81476 -3.29218e-18)
(25.1433 3.83579 0)
(25.1048 3.85786 3.9751e-18)
(25.0649 3.88101 4.36837e-18)
(25.0236 3.90526 0)
(24.9806 3.93065 0)
(24.936 3.95721 0)
(24.8898 3.98497 1.28483e-19)
(24.8417 4.01396 -3.48316e-18)
(24.7918 4.04422 -7.83554e-18)
(24.7399 4.07578 -4.38551e-18)
(24.686 4.10866 4.65542e-18)
(24.6299 4.14292 -2.55973e-18)
(24.5715 4.17857 -2.8149e-18)
(24.5108 4.21565 3.21905e-18)
(24.4476 4.25419 2.59935e-19)
(24.3818 4.29423 -3.74015e-18)
(24.3132 4.3358 -6.26463e-18)
(24.2417 4.37892 2.26409e-18)
(24.1671 4.42364 0)
(24.0894 4.46999 -2.85645e-18)
(24.0082 4.51799 3.12258e-18)
(23.9234 4.5677 -3.44601e-18)
(23.8348 4.61913 -3.79594e-18)
(23.7422 4.67233 -4.0497e-18)
(23.6453 4.72734 0)
(23.5439 4.78419 -2.46269e-18)
(23.4377 4.84292 2.80423e-18)
(23.3264 4.90358 -9.46277e-20)
(23.2097 4.96621 0)
(23.0872 5.03085 1.87456e-18)
(22.9585 5.09755 4.11826e-18)
(22.8232 5.16635 -4.5563e-18)
(22.6809 5.2373 2.46961e-18)
(22.5311 5.31047 5.68201e-18)
(22.3732 5.38589 -6.08176e-18)
(22.2067 5.46363 0)
(22.0308 5.54374 -3.8652e-18)
(21.8448 5.62627 -4.18109e-18)
(21.648 5.71128 -2.39116e-18)
(21.4394 5.79882 -2.69128e-18)
(21.218 5.88893 1.37394e-18)
(20.9827 5.98168 4.92886e-18)
(20.7322 6.07707 -1.88009e-18)
(20.4652 6.17514 6.08269e-18)
(20.1799 6.2759 -2.37005e-18)
(19.8745 6.37931 3.88534e-18)
(19.547 6.48531 1.46632e-18)
(19.1947 6.59379 3.36679e-18)
(18.815 6.70457 0)
(18.4045 6.81737 2.20896e-18)
(17.9592 6.93175 -1.14428e-18)
(17.4745 7.04712 -5.69566e-18)
(16.9449 7.16256 -1.49716e-19)
(16.3637 7.27679 -3.93569e-18)
(15.7227 7.38796 1.0297e-18)
(15.012 7.49337 2.63918e-18)
(14.2192 7.58912 1.10551e-17)
(13.3285 7.66934 -1.96734e-18)
(12.3204 7.72559 -1.18306e-17)
(11.1685 7.74418 -5.95124e-18)
(9.8417 7.70592 7.85433e-18)
(8.29104 7.57608 2.21872e-17)
(6.47375 7.31305 -1.74469e-17)
(4.27089 6.80681 3.2654e-17)
(1.76357 5.90248 -1.98542e-18)
(-1.48884 4.29467 2.8833e-17)
(25.713 3.57934 5.60946e-18)
(25.6929 3.57432 3.94807e-18)
(25.6888 3.58886 4.01563e-18)
(25.6769 3.59505 0)
(25.6601 3.59881 0)
(25.6432 3.60523 0)
(25.6255 3.61316 5.94393e-18)
(25.6065 3.62158 -3.02635e-18)
(25.5863 3.63067 3.43962e-18)
(25.565 3.64061 -3.91285e-18)
(25.5428 3.65135 4.12329e-18)
(25.5197 3.66286 4.70678e-18)
(25.4956 3.67516 -4.96033e-18)
(25.4705 3.68826 0)
(25.4445 3.70218 2.97717e-18)
(25.4175 3.71694 -2.50658e-21)
(25.3895 3.73256 -3.60158e-18)
(25.3604 3.74906 -3.95441e-18)
(25.3303 3.76648 4.50616e-18)
(25.2991 3.78483 1.81283e-19)
(25.2668 3.80415 2.72795e-18)
(25.2333 3.82446 1.10939e-19)
(25.1986 3.8458 3.28255e-18)
(25.1625 3.8682 -3.47261e-18)
(25.1252 3.8917 -7.93928e-18)
(25.0864 3.91631 4.03046e-18)
(25.0462 3.94209 4.80144e-18)
(25.0044 3.96906 -7.49126e-18)
(24.9611 3.99726 -2.78391e-18)
(24.916 4.02672 3.17907e-18)
(24.8692 4.05748 -3.36399e-18)
(24.8206 4.08958 1.54772e-19)
(24.77 4.12304 -4.06725e-18)
(24.7173 4.15792 -9.11754e-18)
(24.6626 4.19423 2.55415e-18)
(24.6056 4.23203 -8.42896e-21)
(24.5462 4.27135 -1.23618e-19)
(24.4844 4.31222 9.94804e-18)
(24.42 4.35469 3.75242e-18)
(24.3528 4.39878 2.21577e-18)
(24.2828 4.44455 -2.18245e-18)
(24.2097 4.49203 0)
(24.1334 4.54126 2.75632e-18)
(24.0536 4.59228 1.09525e-19)
(23.9703 4.64513 3.21537e-18)
(23.8832 4.69987 3.68809e-18)
(23.7921 4.75653 -3.76383e-18)
(23.6968 4.81515 0)
(23.5969 4.8758 -1.17847e-20)
(23.4922 4.93852 -1.10105e-19)
(23.3824 5.00337 -3.12476e-18)
(23.2672 5.07039 6.53688e-18)
(23.1462 5.13965 9.09301e-21)
(23.019 5.21122 -3.92615e-18)
(22.8853 5.28514 -2.08796e-18)
(22.7445 5.36149 -4.80947e-18)
(22.5962 5.44034 2.6712e-18)
(22.4398 5.52177 -2.19412e-20)
(22.2747 5.60586 6.5731e-18)
(22.1002 5.69267 -1.9028e-18)
(21.9156 5.78229 6.23048e-18)
(21.7201 5.87482 0)
(21.5128 5.97035 0)
(21.2927 6.06895 0)
(21.0586 6.1707 -3.17038e-18)
(20.8092 6.27571 0)
(20.5431 6.38405 -4.10375e-18)
(20.2586 6.49578 4.49199e-18)
(19.9538 6.61095 -1.31626e-18)
(19.6267 6.72958 -1.52093e-18)
(19.2746 6.85168 -1.68813e-18)
(18.8946 6.97718 3.60642e-18)
(18.4834 7.10592 2.0902e-18)
(18.0369 7.23764 4.83907e-18)
(17.5504 7.3719 0)
(17.018 7.50806 -3.30868e-18)
(16.4329 7.64509 -1.9606e-18)
(15.7865 7.78146 2.18941e-18)
(15.0685 7.91487 -1.37025e-18)
(14.2657 8.04188 -4.91083e-18)
(13.3615 8.15721 0)
(12.3351 8.25306 2.03221e-19)
(11.1578 8.31644 4.71948e-18)
(9.79607 8.32918 -1.263e-17)
(8.19405 8.25721 -1.68354e-17)
(6.30448 8.05704 -2.02252e-17)
(3.9858 7.60899 2.80099e-17)
(1.34607 6.77786 -2.33784e-17)
(-2.22414 5.18344 -1.07139e-17)
(25.717 3.58863 3.36806e-18)
(25.697 3.5854 -1.16043e-17)
(25.6922 3.59902 -4.01247e-18)
(25.6806 3.60618 0)
(25.6645 3.61115 0)
(25.6479 3.61834 -5.09869e-18)
(25.6308 3.62701 -1.13139e-17)
(25.6124 3.63625 6.06704e-18)
(25.5928 3.64617 -3.43714e-18)
(25.5723 3.65693 0)
(25.5508 3.66853 3.98011e-18)
(25.5284 3.68092 0)
(25.5051 3.69413 0)
(25.4809 3.70818 0)
(25.4557 3.72307 -2.98762e-18)
(25.4296 3.73884 6.43202e-18)
(25.4025 3.75551 3.59978e-18)
(25.3744 3.77309 -7.30685e-21)
(25.3453 3.79163 8.52243e-18)
(25.3151 3.81114 -4.3947e-18)
(25.2839 3.83166 2.62218e-18)
(25.2514 3.85323 -8.40588e-18)
(25.2178 3.87586 -1.26797e-19)
(25.1829 3.89961 6.80853e-18)
(25.1467 3.92449 -3.82015e-18)
(25.1091 3.95055 -8.38325e-18)
(25.0701 3.97783 1.34623e-17)
(25.0296 4.00636 1.97033e-19)
(24.9875 4.03617 2.78725e-18)
(24.9438 4.06731 -5.87688e-18)
(24.8983 4.09982 3.36463e-18)
(24.851 4.13372 3.69949e-18)
(24.8017 4.16908 0)
(24.7505 4.20592 6.71494e-18)
(24.6972 4.24427 -7.08938e-18)
(24.6416 4.2842 -2.59864e-18)
(24.5838 4.32573 2.98331e-18)
(24.5234 4.36891 -3.14628e-18)
(24.4605 4.41379 -3.46934e-18)
(24.3949 4.4604 -3.81509e-18)
(24.3263 4.50879 2.19091e-18)
(24.2548 4.55901 -2.3165e-18)
(24.1801 4.61111 -1.08668e-19)
(24.102 4.66513 2.81269e-18)
(24.0203 4.72112 -6.32169e-18)
(23.9348 4.77914 3.4186e-18)
(23.8453 4.83925 3.91916e-18)
(23.7516 4.90149 6.33316e-18)
(23.6534 4.96592 -4.59731e-18)
(23.5504 5.03262 2.64615e-18)
(23.4423 5.10164 -5.61358e-18)
(23.3289 5.17306 3.10561e-18)
(23.2096 5.24694 -3.56331e-18)
(23.0842 5.32336 5.92614e-18)
(22.9522 5.4024 6.88706e-20)
(22.8131 5.48415 -1.7654e-20)