/*--------------------------------*- C++ -*----------------------------------*\
  =========                 |
  \\      /  F ield         | OpenFOAM: The Open Source CFD Toolbox
   \\    /   O peration     | Website:  https://openfoam.org
    \\  /    A nd           | Version:  11
     \\/     M anipulation  |
\*---------------------------------------------------------------------------*/
FoamFile
{
    format      ascii;
    class       volVectorField;
    location    "300";
    object      U;
}
// * * * * * * * * * * * * * * * * * * * * * * * * * * * * * * * * * * * * * //

dimensions      [0 1 -1 0 0 0 0];

internalField   nonuniform List<vector> 
31595
(
(7.33719 -0.0277074 -4.36887e-20)
(7.35494 -0.018615 3.46418e-20)
(7.34529 -0.0187496 8.71559e-20)
(7.3501 -0.019231 9.39861e-20)
(7.34601 -0.0190725 0)
(7.34695 -0.0189219 0)
(7.34407 -0.0189565 0)
(7.34344 -0.0188384 8.06642e-20)
(7.34108 -0.0187541 4.10073e-21)
(7.33965 -0.0186017 0)
(7.33744 -0.0184436 0)
(7.3356 -0.018233 6.22018e-20)
(7.3334 -0.0180028 -6.5491e-20)
(7.33133 -0.0177316 7.62755e-20)
(7.32908 -0.017435 -8.03087e-20)
(7.32686 -0.0171043 9.03525e-20)
(7.32455 -0.0167476 0)
(7.32224 -0.0163624 -1.12504e-19)
(7.31988 -0.0159539 2.38843e-19)
(7.3175 -0.0155233 -6.77407e-20)
(7.3151 -0.0150752 7.13204e-20)
(7.31268 -0.0146131 0)
(7.31026 -0.0141427 0)
(7.30784 -0.0136699 9.6704e-20)
(7.30542 -0.013202 -4.91304e-20)
(7.30301 -0.0127475 1.86093e-21)
(7.30062 -0.0123165 -1.21112e-19)
(7.29826 -0.0119205 -6.76146e-20)
(7.29593 -0.0115726 1.44461e-19)
(7.29364 -0.0112881 -1.55268e-19)
(7.29139 -0.0110839 0)
(7.28919 -0.0109793 -4.56842e-20)
(7.28705 -0.0109955 4.99258e-20)
(7.28497 -0.0111564 -5.25661e-20)
(7.28296 -0.0114876 5.70873e-20)
(7.28102 -0.0120177 -6.21449e-20)
(7.27915 -0.0127773 3.19102e-20)
(7.27734 -0.0137993 1.06521e-19)
(7.27561 -0.0151191 0)
(7.27393 -0.0167742 -4.09762e-20)
(7.27231 -0.0188042 8.61353e-20)
(7.27074 -0.0212509 0)
(7.26921 -0.0241578 0)
(7.2677 -0.0275705 -2.73681e-20)
(7.2662 -0.0315363 1.14018e-19)
(7.26468 -0.0361042 0)
(7.26313 -0.0413249 -3.25369e-20)
(7.26153 -0.047251 6.78068e-20)
(7.25984 -0.0539368 -3.71915e-20)
(7.25804 -0.0614387 3.82002e-20)
(7.2561 -0.069815 -1.08068e-19)
(7.25398 -0.0791267 1.95933e-20)
(7.25166 -0.0894376 -7.53752e-20)
(7.24909 -0.100814 1.07211e-19)
(7.24623 -0.113327 -2.61768e-20)
(7.24304 -0.127052 -5.90435e-20)
(7.23948 -0.142066 -3.35066e-20)
(7.23551 -0.158457 -2.20487e-20)
(7.23107 -0.176317 -4.09857e-20)
(7.22612 -0.195743 6.59653e-20)
(7.2206 -0.216846 -1.98073e-21)
(7.21445 -0.239745 2.72023e-20)
(7.20762 -0.264569 -2.70787e-21)
(7.20005 -0.291464 -1.29266e-20)
(7.19167 -0.32059 2.04582e-20)
(7.18241 -0.352126 -7.75841e-20)
(7.1722 -0.386273 -2.42441e-20)
(7.16097 -0.423261 2.11823e-20)
(7.14863 -0.463345 8.10411e-20)
(7.1351 -0.506822 4.45926e-21)
(7.12029 -0.554026 -4.53105e-20)
(7.10411 -0.605345 9.10291e-22)
(7.08647 -0.661238 4.11056e-20)
(7.06727 -0.722206 0)
(7.04643 -0.788943 5.23799e-20)
(7.02384 -0.86198 0)
(6.99946 -0.942693 2.7241e-20)
(6.9732 -1.03096 0)
(6.94509 -1.13074 0)
(6.91532 -1.23757 0)
(6.88324 -1.36655 4.68113e-20)
(6.85225 -1.49227 2.09016e-20)
(6.81389 -1.67468 -3.30132e-20)
(6.79408 -1.80598 -2.7268e-20)
(6.73307 -2.10166 1.21642e-20)
(6.77793 -2.19378 4.07059e-21)
(6.62171 -2.72456 6.07882e-21)
(6.98685 -2.7485 2.2897e-21)
(6.41338 -3.76919 -2.50913e-21)
(7.34684 -0.0242349 1.78423e-19)
(7.34984 -0.0183119 8.34721e-20)
(7.34914 -0.0167364 6.64868e-20)
(7.34837 -0.0176759 -2.74591e-19)
(7.34732 -0.0174229 0)
(7.34625 -0.0172754 0)
(7.34471 -0.017218 1.33262e-19)
(7.34318 -0.0171285 0)
(7.34144 -0.0169828 0)
(7.33964 -0.0168239 -1.86312e-19)
(7.33772 -0.0166243 -3.14476e-19)
(7.33574 -0.016395 2.27863e-19)
(7.33367 -0.0161298 1.27701e-19)
(7.33156 -0.0158345 2.86832e-19)
(7.32938 -0.0155071 -1.53231e-19)
(7.32716 -0.0151511 -8.68518e-20)
(7.3249 -0.0147675 9.7546e-20)
(7.32259 -0.0143593 -3.1155e-19)
(7.32026 -0.0139288 2.03339e-21)
(7.3179 -0.0134799 -2.49968e-19)
(7.31551 -0.0130163 0)
(7.31311 -0.012543 0)
(7.31069 -0.0120655 0)
(7.30826 -0.0115904 0)
(7.30583 -0.0111254 1.97091e-19)
(7.30341 -0.0106792 0)
(7.30099 -0.0102621 2.34548e-19)
(7.29858 -0.00988575 0)
(7.29619 -0.00956339 1.38178e-19)
(7.29383 -0.00930995 7.51883e-20)
(7.2915 -0.00914223 -8.24924e-20)
(7.28919 -0.00907896 8.56594e-20)
(7.28693 -0.00914082 9.39531e-20)
(7.2847 -0.00935063 -1.0404e-19)
(7.28252 -0.00973331 1.09554e-19)
(7.28037 -0.0103159 -6.04127e-20)
(7.27827 -0.0111277 1.27579e-19)
(7.27621 -0.0122003 -6.87264e-20)
(7.27418 -0.013567 0)
(7.27218 -0.0152636 0)
(7.2702 -0.0173277 -1.73368e-19)
(7.26824 -0.019799 -2.02856e-21)
(7.26627 -0.022719 0)
(7.26429 -0.0261311 1.07783e-19)
(7.26228 -0.0300806 -1.14244e-19)
(7.26022 -0.0346145 -6.04836e-20)
(7.25808 -0.0397815 0)
(7.25584 -0.0456325 0)
(7.25349 -0.0522201 0)
(7.25098 -0.0595991 3.94444e-20)
(7.24828 -0.0678264 4.23843e-20)
(7.24537 -0.0769621 4.56029e-20)
(7.2422 -0.0870684 4.91404e-20)
(7.23875 -0.0982114 -5.30401e-20)
(7.23496 -0.110461 3.21201e-20)
(7.2308 -0.123891 -1.00433e-21)
(7.22622 -0.138582 7.10371e-20)
(7.22117 -0.154617 -4.07739e-20)
(7.2156 -0.17209 3.7129e-20)
(7.20947 -0.191099 -4.53065e-20)
(7.20271 -0.211754 -2.39198e-20)
(7.19526 -0.234175 -8.65878e-20)
(7.18707 -0.258492 2.89774e-20)
(7.17806 -0.284853 -3.49025e-20)
(7.16816 -0.313419 1.54047e-21)
(7.15731 -0.344372 1.26391e-19)
(7.14542 -0.377916 -4.95744e-20)
(7.13241 -0.414283 1.03346e-19)
(7.11818 -0.453735 -8.00927e-20)
(7.10265 -0.496577 3.70494e-20)
(7.08571 -0.543146 -3.67059e-20)
(7.06726 -0.593845 3.88304e-20)
(7.04719 -0.649148 -6.42215e-20)
(7.02538 -0.709574 5.17853e-20)
(7.00173 -0.775824 -2.44177e-20)
(6.97612 -0.848509 0)
(6.94846 -0.928922 7.36486e-20)
(6.91866 -1.01726 8.18905e-20)
(6.88666 -1.117 9.06049e-20)
(6.8527 -1.2249 2.35001e-20)
(6.81607 -1.35395 -9.67842e-20)
(6.77979 -1.48319 -3.2629e-20)
(6.73677 -1.66504 -6.24693e-20)
(6.7089 -1.80528 8.18263e-20)
(6.64588 -2.09924 2.96967e-20)
(6.67594 -2.20752 -5.56963e-20)
(6.52429 -2.73994 -7.70643e-21)
(6.84463 -2.77017 -2.23729e-20)
(6.295 -3.81897 -1.72345e-20)
(7.34842 -0.0203248 -1.37499e-19)
(7.34992 -0.0168282 -1.32508e-19)
(7.34968 -0.0150135 1.59014e-19)
(7.3486 -0.0158521 1.03559e-20)
(7.34752 -0.0157947 -2.09201e-19)
(7.34636 -0.0156046 2.20255e-19)
(7.34487 -0.0155309 2.59684e-19)
(7.34332 -0.0154259 -1.39521e-19)
(7.34161 -0.0152628 0)
(7.33982 -0.0150745 1.79764e-19)
(7.33793 -0.01485 2.00167e-19)
(7.33597 -0.0145912 -1.11135e-19)
(7.33393 -0.0142973 -1.23224e-19)
(7.33184 -0.0139717 -1.40438e-19)
(7.32969 -0.0136148 1.46653e-19)
(7.3275 -0.0132293 0)
(7.32525 -0.0128173 1.86624e-19)
(7.32297 -0.0123818 2.04775e-19)
(7.32065 -0.0119261 0)
(7.3183 -0.0114538 -1.19358e-19)
(7.31593 -0.0109696 0)
(7.31353 -0.0104786 -1.44691e-19)
(7.31111 -0.00998662 0)
(7.30867 -0.00950064 3.50075e-19)
(7.30623 -0.00902859 -3.72556e-19)
(7.30378 -0.00857943 -4.09482e-19)
(7.30132 -0.00816353 -2.27532e-19)
(7.29887 -0.00779258 1.20655e-19)
(7.29642 -0.00747969 -1.33481e-19)
(7.29398 -0.00723961 0)
(7.29155 -0.00708891 0)
(7.28914 -0.00704571 -8.63256e-20)
(7.28674 -0.00713006 1.81912e-19)
(7.28436 -0.00736413 9.83972e-20)
(7.282 -0.00777166 0)
(7.27966 -0.0083789 0)
(7.27733 -0.00921372 -1.27241e-19)
(7.27501 -0.0103063 1.34026e-19)
(7.2727 -0.0116883 -7.39766e-20)
(7.27038 -0.0133941 3.16655e-19)
(7.26806 -0.0154595 1.71678e-19)
(7.26571 -0.0179224 -1.77269e-22)
(7.26332 -0.0208226 -9.9914e-20)
(7.26089 -0.0242016 3.43802e-21)
(7.25838 -0.0281028 1.12273e-19)
(7.25579 -0.0325716 -1.25744e-19)
(7.25308 -0.037655 6.7327e-20)
(7.25024 -0.0434023 2.54665e-21)
(7.24724 -0.0498646 0)
(7.24404 -0.0570953 -8.62317e-20)
(7.24061 -0.0651503 -9.3567e-20)
(7.23693 -0.0740884 1.01662e-19)
(7.23295 -0.0839712 -5.62915e-20)
(7.22863 -0.0948636 -1.16421e-19)
(7.22393 -0.106835 1.54007e-21)
(7.21881 -0.119959 7.04412e-20)
(7.21323 -0.134315 -7.43103e-20)
(7.20712 -0.149987 -4.2269e-20)
(7.20045 -0.167068 1.36563e-19)
(7.19314 -0.185658 4.54458e-20)
(7.18515 -0.205865 5.39669e-20)
(7.17641 -0.227811 5.76686e-20)
(7.16685 -0.251628 -7.07194e-20)
(7.1564 -0.277463 0)
(7.14499 -0.305479 0)
(7.13253 -0.335863 -1.87513e-19)
(7.11894 -0.36882 -5.80708e-20)
(7.10412 -0.404586 0)
(7.08797 -0.443428 0)
(7.0704 -0.485653 -6.68718e-20)
(7.05127 -0.531612 0)
(7.03048 -0.58172 -1.39796e-19)
(7.0079 -0.636453 4.84186e-20)
(6.98338 -0.696355 5.00613e-21)
(6.95681 -0.762139 -1.58614e-19)
(6.92802 -0.83448 3.39011e-20)
(6.89691 -0.914619 -1.15359e-19)
(6.86336 -1.00299 -1.23121e-19)
(6.82721 -1.10273 -8.95995e-20)
(6.78872 -1.21156 1.1367e-19)
(6.74711 -1.34082 -1.24742e-19)
(6.70518 -1.4731 5.93637e-20)
(6.65652 -1.65493 6.21463e-20)
(6.62073 -1.80285 -1.65234e-19)
(6.55324 -2.09613 1.84492e-20)
(6.56966 -2.21942 2.70431e-20)
(6.42026 -2.754 8.16793e-21)
(6.70614 -2.79135 8.35726e-20)
(6.21745 -3.8779 2.97379e-20)
(7.34952 -0.0169981 -1.27578e-19)
(7.34996 -0.0150447 -1.37027e-19)
(7.35002 -0.0133169 -1.43955e-19)
(7.3488 -0.0140513 1.78662e-19)
(7.34771 -0.0141475 7.18004e-21)
(7.34649 -0.0139604 0)
(7.34505 -0.0138701 7.73018e-21)
(7.34347 -0.0137521 -1.3554e-19)
(7.34179 -0.0135734 1.50454e-19)
(7.34002 -0.0133575 0)
(7.33815 -0.0131067 1.97077e-19)
(7.33622 -0.0128181 -2.0751e-19)
(7.33421 -0.0124939 -2.4188e-19)
(7.33214 -0.0121365 1.23732e-19)
(7.33002 -0.011748 0)
(7.32784 -0.0113308 0)
(7.32562 -0.0108877 -1.7408e-19)
(7.32336 -0.010422 -1.93483e-19)
(7.32106 -0.00993723 2.10549e-19)
(7.31872 -0.00943767 4.70764e-19)
(7.31635 -0.00892806 3.6544e-21)
(7.31395 -0.0084138 -2.80074e-19)
(7.31153 -0.00790112 -5.81474e-21)
(7.30909 -0.00739716 -3.63993e-21)
(7.30662 -0.00690999 1.37054e-21)
(7.30414 -0.00644878 1.99794e-19)
(7.30165 -0.00602378 0)
(7.29914 -0.00564667 1.20297e-19)
(7.29663 -0.00533045 -2.57558e-19)
(7.29412 -0.00508972 -1.44195e-19)
(7.29159 -0.00494042 -4.67376e-21)
(7.28907 -0.0049002 -2.40164e-21)
(7.28654 -0.00498861 -1.78917e-19)
(7.28401 -0.00522689 0)
(7.28148 -0.00563796 0)
(7.27893 -0.00624682 -1.15491e-19)
(7.27638 -0.00708027 -2.2067e-21)
(7.27381 -0.00816692 0)
(7.27122 -0.00953735 0)
(7.26859 -0.0112241 -1.54441e-19)
(7.26593 -0.0132614 -8.33482e-20)
(7.2632 -0.0156855 1.84308e-19)
(7.26041 -0.0185343 1.96883e-19)
(7.25754 -0.0218478 -1.01879e-19)
(7.25455 -0.0256674 2.3392e-19)
(7.25145 -0.0300369 -8.06698e-22)
(7.24819 -0.0350018 0)
(7.24476 -0.0406095 -7.15067e-20)
(7.24112 -0.0469098 1.62652e-19)
(7.23725 -0.0539547 1.716e-19)
(7.23312 -0.0617984 -9.77239e-20)
(7.22868 -0.070499 -9.90216e-20)
(7.2239 -0.0801167 1.07779e-19)
(7.21875 -0.0907157 0)
(7.21316 -0.102365 -1.37736e-19)
(7.20711 -0.115136 0)
(7.20054 -0.129108 0)
(7.1934 -0.144367 0)
(7.18564 -0.161002 -9.28529e-20)
(7.17719 -0.179114 5.47689e-20)
(7.16798 -0.198813 6.55258e-20)
(7.15797 -0.220219 0)
(7.14706 -0.243464 -8.1146e-21)
(7.1352 -0.268698 5.64141e-21)
(7.12228 -0.296085 0)
(7.10823 -0.325811 4.36188e-20)
(7.09294 -0.358084 4.32991e-20)
(7.07633 -0.393145 -1.30687e-19)
(7.05827 -0.431262 0)
(7.03864 -0.472749 0)
(7.01733 -0.517966 0)
(6.99418 -0.56733 4.22461e-20)
(6.96906 -0.62133 5.33811e-20)
(6.9418 -0.680537 0)
(6.91224 -0.745662 -5.78951e-21)
(6.88022 -0.817435 2.38396e-19)
(6.84555 -0.89707 3.71842e-20)
(6.8081 -0.985206 9.68494e-20)
(6.76764 -1.08469 -1.94616e-19)
(6.72441 -1.19409 1.32793e-20)
(6.67751 -1.32329 1.58565e-20)
(6.62962 -1.45821 -3.66915e-20)
(6.57463 -1.63966 3.8979e-20)
(6.53067 -1.79503 1.72152e-19)
(6.45716 -2.08706 0)
(6.45998 -2.22551 1.10748e-19)
(6.31112 -2.76342 6.5089e-20)
(6.55973 -2.80837 -6.27831e-20)
(6.1431 -3.93722 -1.01735e-20)
(7.34987 -0.0141992 2.39846e-19)
(7.35006 -0.0132879 0)
(7.35019 -0.0116812 1.39889e-19)
(7.34902 -0.0123229 3.3958e-19)
(7.34785 -0.0125167 -1.7622e-19)
(7.34664 -0.0123565 -2.06511e-19)
(7.34521 -0.0122466 4.8526e-19)
(7.34365 -0.0121167 -5.28442e-19)
(7.34199 -0.0119201 0)
(7.34024 -0.0116784 1.7103e-19)
(7.3384 -0.0113986 -1.80084e-19)
(7.33648 -0.0110793 0)
(7.3345 -0.0107226 0)
(7.33246 -0.0103315 0)
(7.33036 -0.00990876 2.75549e-19)
(7.32821 -0.00945706 0)
(7.32601 -0.00897965 1.69224e-19)
(7.32377 -0.0084801 -1.89442e-19)
(7.32148 -0.00796231 -5.18551e-21)
(7.31915 -0.00743071 -2.22408e-19)
(7.31679 -0.00689036 -2.53007e-19)
(7.31439 -0.00634693 5.33973e-19)
(7.31196 -0.00580677 0)
(7.3095 -0.0052771 3.20732e-19)
(7.30702 -0.00476619 3.52129e-19)
(7.30451 -0.00428315 -4.30904e-21)
(7.30197 -0.00383826 2.06344e-19)
(7.29942 -0.00344304 0)
(7.29684 -0.0031103 0)
(7.29424 -0.00285423 2.74098e-19)
(7.29163 -0.00269037 -1.42876e-19)
(7.28899 -0.00263601 -1.58256e-19)
(7.28633 -0.0027097 1.74748e-19)
(7.28365 -0.00293207 1.89971e-19)
(7.28095 -0.00332519 -2.09089e-19)
(7.27821 -0.00391296 3.33711e-19)
(7.27544 -0.00472093 1.08262e-21)
(7.27262 -0.00577654 0)
(7.26976 -0.00710889 -1.43526e-19)
(7.26683 -0.00874915 0)
(7.26383 -0.0107299 1.69173e-19)
(7.26075 -0.0130859 -3.63255e-19)
(7.25756 -0.0158533 -1.00029e-19)
(7.25426 -0.0190705 9.40159e-23)
(7.25081 -0.0227772 -2.32047e-19)
(7.24721 -0.0270157 2.52365e-19)
(7.24342 -0.0318296 4.27091e-21)
(7.23941 -0.0372651 -1.46877e-19)
(7.23517 -0.0433701 8.99757e-20)
(7.23065 -0.0501954 -8.71233e-20)
(7.22583 -0.0577942 9.40805e-20)
(7.22066 -0.0662226 8.10351e-22)
(7.21511 -0.0755402 -4.33775e-21)
(7.20914 -0.0858096 1.24412e-19)
(7.2027 -0.0970992 1.34537e-19)
(7.19574 -0.10948 -7.81577e-20)
(7.18821 -0.123029 -3.61996e-21)
(7.18006 -0.137833 -4.12265e-21)
(7.17122 -0.15398 2.06719e-19)
(7.16164 -0.17157 -5.81745e-20)
(7.15125 -0.190714 6.87044e-21)
(7.13998 -0.21153 2.13307e-19)
(7.12775 -0.234152 1.48645e-19)
(7.11448 -0.258728 -2.62527e-19)
(7.10007 -0.285424 -9.89844e-20)
(7.08444 -0.314427 1.04731e-19)
(7.06747 -0.345949 1.14691e-19)
(7.04906 -0.380227 -1.20022e-20)
(7.02909 -0.417537 0)
(7.00741 -0.458197 -8.68758e-20)
(6.98389 -0.502567 1.4081e-19)
(6.95836 -0.551079 -5.1684e-20)
(6.93067 -0.604226 0)
(6.90063 -0.662594 -6.90551e-20)
(6.86803 -0.726909 7.3315e-20)
(6.83268 -0.797947 -1.60836e-19)
(6.79436 -0.876898 -1.99532e-19)
(6.75289 -0.964571 2.2406e-19)
(6.70795 -1.06359 2.38475e-19)
(6.65975 -1.17325 1.43776e-20)
(6.60727 -1.30219 1.39431e-19)
(6.55309 -1.43926 4.13409e-20)
(6.49122 -1.62024 -2.32202e-19)
(6.43875 -1.78244 -9.17175e-20)
(6.35796 -2.07309 0)
(6.34703 -2.22664 -1.00799e-19)
(6.19647 -2.76913 -8.58104e-20)
(6.40213 -2.8231 1.14794e-19)
(6.03656 -3.98913 0)
(7.35018 -0.0118599 0)
(7.35011 -0.0116113 0)
(7.3503 -0.0101498 0)
(7.34919 -0.0106881 -1.62017e-19)
(7.34799 -0.0109385 -1.90985e-19)
(7.34678 -0.0108026 2.01094e-19)
(7.34538 -0.010673 -1.24721e-21)
(7.34384 -0.0105251 -2.58356e-19)
(7.3422 -0.0103084 -2.878e-19)
(7.34047 -0.010039 0)
(7.33866 -0.00972798 -3.55029e-19)
(7.33677 -0.00937552 0)
(7.33482 -0.00898393 2.17679e-19)
(7.3328 -0.00855659 0)
(7.33073 -0.0080967 -2.68738e-19)
(7.3286 -0.00760741 3.01726e-19)
(7.32642 -0.00709228 4.90136e-21)
(7.32419 -0.00655503 0)
(7.32192 -0.00599987 1.95244e-19)
(7.3196 -0.00543149 -2.18023e-19)
(7.31724 -0.00485502 -5.87687e-21)
(7.31484 -0.00427629 -2.5828e-19)
(7.31241 -0.0037018 2.83077e-19)
(7.30994 -0.00313883 -6.22953e-19)
(7.30743 -0.00259568 -1.71122e-19)
(7.30489 -0.00208133 2.8935e-21)
(7.30231 -0.00160612 -2.00006e-19)
(7.2997 -0.00118122 0)
(7.29706 -0.00081922 2.46825e-19)
(7.29439 -0.000533774 -2.54803e-19)
(7.29167 -0.00034035 -1.39266e-19)
(7.28893 -0.000255156 3.13659e-19)
(7.28614 -0.000296558 -3.44267e-19)
(7.28331 -0.000484193 -1.91508e-19)
(7.28044 -0.000839149 -6.4441e-21)
(7.27751 -0.0013843 4.37078e-19)
(7.27452 -0.00214422 0)
(7.27147 -0.003145 0)
(7.26834 -0.00441455 -3.31228e-21)
(7.26512 -0.0059825 -3.48454e-21)
(7.2618 -0.00788004 -1.65349e-19)
(7.25837 -0.0101403 -5.02477e-21)
(7.2548 -0.012798 -1.05755e-19)
(7.25108 -0.0158899 2.14391e-19)
(7.24719 -0.0194541 1.15284e-19)
(7.2431 -0.0235313 0)
(7.2388 -0.0281635 0)
(7.23424 -0.0333954 1.54783e-19)
(7.22941 -0.0392734 -3.2573e-19)
(7.22427 -0.0458468 0)
(7.21878 -0.0531677 -3.05019e-19)
(7.21291 -0.0612904 -1.10534e-19)
(7.20661 -0.0702736 1.17494e-19)
(7.19985 -0.0801786 0)
(7.19256 -0.0910729 1.49091e-19)
(7.18472 -0.103026 -8.18031e-20)
(7.17626 -0.116115 1.7677e-19)
(7.16712 -0.130424 -2.96865e-19)
(7.15724 -0.146042 7.25991e-21)
(7.14656 -0.163068 0)
(7.135 -0.181611 -1.28325e-19)
(7.1225 -0.20179 -1.4261e-19)
(7.10896 -0.223738 8.47775e-20)
(7.0943 -0.247603 -7.39955e-21)
(7.07843 -0.273552 1.001e-19)
(7.06123 -0.301772 -2.3744e-19)
(7.04259 -0.332474 5.89896e-20)
(7.0224 -0.365902 1.32805e-19)
(7.00051 -0.402329 -7.86392e-20)
(6.97678 -0.442075 0)
(6.95105 -0.485512 2.12237e-19)
(6.92314 -0.533071 2.38817e-19)
(6.89285 -0.585259 0)
(6.85998 -0.642676 -7.48804e-20)
(6.8243 -0.706054 -6.7783e-21)
(6.78556 -0.776209 -2.81958e-19)
(6.74349 -0.854326 1.44541e-19)
(6.69786 -0.941353 1.38341e-19)
(6.64829 -1.03975 -5.30281e-19)
(6.59488 -1.14941 -6.80927e-20)
(6.53655 -1.27799 -4.19448e-20)
(6.47567 -1.41682 -1.9381e-19)
(6.40643 -1.5974 1.86416e-19)
(6.34478 -1.76582 -2.06716e-19)
(6.25563 -2.0556 2.87157e-20)
(6.23014 -2.22378 0)
(6.07537 -2.77129 0)
(6.25089 -2.84455 3.09499e-20)
(5.88018 -4.01685 -8.62569e-21)
(7.35044 -0.00988382 0)
(7.35014 -0.0100646 0)
(7.35038 -0.00873961 0)
(7.34934 -0.00916464 1.32671e-20)
(7.34813 -0.00943156 -1.73425e-19)
(7.34693 -0.0093103 4.04665e-19)
(7.34556 -0.00915712 -4.45466e-19)
(7.34404 -0.00898454 7.62736e-19)
(7.34242 -0.00874284 8.5535e-21)
(7.34072 -0.00844278 0)
(7.33894 -0.00809741 3.47327e-19)
(7.33708 -0.00770882 1.96367e-19)
(7.33515 -0.00727933 -4.19775e-19)
(7.33316 -0.00681269 0)
(7.33111 -0.00631247 2.64553e-19)
(7.32901 -0.00578223 -2.78606e-19)
(7.32685 -0.00522563 5.36393e-21)
(7.32464 -0.00464666 -3.38159e-19)
(7.32238 -0.00404965 3.10309e-21)
(7.32007 -0.00343944 5.42947e-21)
(7.31772 -0.00282126 -6.36246e-21)
(7.31532 -0.00220107 4.99332e-19)
(7.31288 -0.00158538 -2.97617e-21)
(7.31039 -0.000981514 6.03927e-19)
(7.30786 -0.000397617 0)
(7.30529 0.000157387 0)
(7.30267 0.000673345 0)
(7.30001 0.00113933 0)
(7.2973 0.00154313 -4.76297e-19)
(7.29455 0.0018714 5.11939e-19)
(7.29175 0.00210932 5.67817e-19)
(7.28889 0.00224104 -1.48705e-19)
(7.28598 0.00224899 -3.37973e-19)
(7.28301 0.00211449 1.79611e-19)
(7.27997 0.00181717 0)
(7.27685 0.00133518 -6.5434e-19)
(7.27366 0.000645063 -2.45163e-19)
(7.27038 -0.000278089 -5.36606e-21)
(7.26699 -0.00146093 0)
(7.26349 -0.00293163 -2.28891e-21)
(7.25986 -0.00472012 0)
(7.25609 -0.00685803 -1.85129e-19)
(7.25215 -0.00937848 3.91264e-19)
(7.24804 -0.0123167 -2.13784e-19)
(7.24372 -0.0157095 -1.20526e-19)
(7.23917 -0.0195957 -4.70106e-21)
(7.23437 -0.0240157 1.38991e-19)
(7.22928 -0.0290131 0)
(7.22388 -0.0346324 -1.72927e-19)
(7.21814 -0.0409214 0)
(7.21201 -0.0479311 4.08973e-19)
(7.20545 -0.0557142 -1.15016e-19)
(7.19843 -0.064328 1.21403e-19)
(7.1909 -0.0738322 1.39792e-19)
(7.18281 -0.0842939 -2.94552e-19)
(7.1741 -0.0957806 -1.63091e-19)
(7.16473 -0.108369 0)
(7.15463 -0.122141 1.98375e-19)
(7.14374 -0.137185 -1.09997e-19)
(7.13198 -0.1536 0)
(7.11929 -0.171492 -1.44806e-19)
(7.10558 -0.190981 0)
(7.09076 -0.2122 0)
(7.07474 -0.235294 -1.0041e-19)
(7.05742 -0.260431 2.18683e-19)
(7.03868 -0.287797 1.24756e-19)
(7.0184 -0.317604 7.82275e-21)
(6.99644 -0.350094 -1.49827e-21)
(6.97266 -0.385546 0)
(6.94689 -0.424282 0)
(6.91896 -0.466671 -3.24496e-19)
(6.88866 -0.513154 -2.29744e-19)
(6.85577 -0.564245 -4.23514e-19)
(6.82006 -0.620553 -8.0873e-20)
(6.78126 -0.68282 2.55899e-19)
(6.73908 -0.751894 1.91646e-19)
(6.6932 -0.828958 5.80981e-20)
(6.64332 -0.915077 -3.05628e-19)
(6.58897 -1.01259 2.74364e-19)
(6.53017 -1.12188 0)
(6.46573 -1.24981 -1.89129e-19)
(6.39776 -1.38985 2.96171e-19)
(6.32063 -1.56976 -1.09894e-19)
(6.24913 -1.74367 2.35799e-19)
(6.1505 -2.03218 0)
(6.10943 -2.21486 0)
(5.94799 -2.76473 1.61324e-20)
(6.09086 -2.85488 6.25469e-21)
(5.74653 -4.05475 -2.43867e-21)
(7.35071 -0.00820846 0)
(7.3502 -0.00864844 0)
(7.35045 -0.00744898 -2.74194e-19)
(7.34949 -0.00775644 6.36533e-19)
(7.34828 -0.00800721 -6.96797e-19)
(7.34709 -0.00788693 -3.93908e-19)
(7.34574 -0.00770469 -2.2647e-19)
(7.34425 -0.00749987 2.44488e-19)
(7.34266 -0.00722739 1.45288e-20)
(7.34099 -0.00689255 -6.05256e-19)
(7.33924 -0.00650914 -5.84846e-21)
(7.33741 -0.00608081 -3.6829e-19)
(7.33551 -0.00561007 -1.96915e-19)
(7.33354 -0.00510076 3.44382e-21)
(7.33152 -0.00455683 7.94586e-21)
(7.32944 -0.00398194 -5.52039e-19)
(7.3273 -0.00337996 5.98854e-19)
(7.32511 -0.00275504 1.01486e-20)
(7.32286 -0.00211158 -1.7223e-19)
(7.32057 -0.00145444 -5.99778e-19)
(7.31822 -0.000788972 -2.23553e-19)
(7.31582 -0.000121138 -2.42335e-19)
(7.31337 0.000542621 -2.69122e-19)
(7.31087 0.00119498 4.57087e-21)
(7.30832 0.00182803 -9.63609e-19)
(7.30572 0.00243288 5.2542e-19)
(7.30306 0.00299974 -3.81265e-19)
(7.30035 0.00351795 -4.9745e-21)
(7.29758 0.0039756 -7.23878e-21)
(7.29475 0.00435984 5.05022e-19)
(7.29186 0.00465638 -5.47138e-19)
(7.2889 0.00484995 -3.01516e-19)
(7.28587 0.00492374 6.61351e-19)
(7.28275 0.00485987 -1.76698e-19)
(7.27956 0.00463874 -3.96608e-19)
(7.27627 0.00423964 4.24548e-19)
(7.27287 0.00364012 2.33218e-19)
(7.26937 0.00281646 2.54437e-19)
(7.26573 0.00174323 -2.80794e-19)
(7.26196 0.000393588 1.51491e-19)
(7.25804 -0.00126111 0)
(7.25394 -0.00325097 1.94745e-21)
(7.24965 -0.00560764 -1.95971e-19)
(7.24516 -0.00836492 2.20728e-19)
(7.24042 -0.011558 1.21985e-19)
(7.23543 -0.0152241 -2.62411e-19)
(7.23016 -0.0194025 1.41092e-19)
(7.22456 -0.0241345 1.61244e-19)
(7.21862 -0.0294637 -1.7707e-19)
(7.21229 -0.0354363 1.87094e-19)
(7.20554 -0.0421013 -4.20166e-19)
(7.19833 -0.0495104 1.18618e-19)
(7.19061 -0.0577193 -1.25239e-19)
(7.18234 -0.0667867 -1.44883e-19)
(7.17346 -0.0767773 4.66075e-19)
(7.16393 -0.0877576 -3.47059e-19)
(7.15368 -0.0998034 -9.87064e-20)
(7.14264 -0.112994 -1.14886e-19)
(7.13077 -0.127419 1.22085e-19)
(7.11797 -0.143172 -5.37045e-19)
(7.10416 -0.160362 2.87092e-19)
(7.08928 -0.179106 -1.69505e-19)
(7.07321 -0.199533 2.7419e-19)
(7.05586 -0.221791 3.12581e-19)
(7.03712 -0.246045 0)
(7.01687 -0.27248 0)
(6.99497 -0.301306 1.49918e-19)
(6.97127 -0.332769 -1.59007e-19)
(6.94562 -0.367144 1.89906e-19)
(6.91784 -0.404752 0)
(6.88772 -0.445969 -1.57821e-20)
(6.85505 -0.491235 -2.72575e-19)
(6.81957 -0.541066 -9.75188e-20)
(6.78102 -0.596083 8.17808e-20)
(6.7391 -0.657034 0)
(6.69346 -0.724795 3.34307e-19)
(6.64371 -0.800542 -1.18492e-19)
(6.58951 -0.885437 7.1111e-20)
(6.53029 -0.981719 -1.56279e-19)
(6.46592 -1.0902 8.58454e-20)
(6.39516 -1.21704 1.90215e-19)
(6.31979 -1.35764 0)
(6.23435 -1.53636 0)
(6.15237 -1.71488 2.91239e-19)
(6.04325 -2.00129 -3.0905e-19)
(5.98562 -2.19818 0)
(5.81458 -2.74741 0)
(5.92647 -2.86431 -1.55527e-19)
(5.61909 -4.09637 -6.90639e-20)
(7.35099 -0.00678175 2.30596e-19)
(7.3503 -0.00735992 -2.81323e-21)
(7.35053 -0.00627259 -2.79468e-19)
(7.34963 -0.00646271 0)
(7.34843 -0.0066706 -3.57997e-19)
(7.34725 -0.00653679 7.64595e-19)
(7.34594 -0.00631912 -4.27378e-19)
(7.34448 -0.00607467 8.05795e-21)
(7.34292 -0.00576497 -2.58433e-19)
(7.34128 -0.00539063 0)
(7.33956 -0.00496502 3.27485e-19)
(7.33776 -0.00449303 3.62439e-19)
(7.33589 -0.00397736 -1.9783e-19)
(7.33395 -0.00342181 2.04109e-19)
(7.33196 -0.00283049 4.81329e-19)
(7.3299 -0.00220715 -5.38829e-19)
(7.32778 -0.00155574 2.83666e-19)
(7.32561 -0.000880529 3.26774e-19)
(7.32338 -0.000185888 0)
(7.3211 0.000523235 7.84918e-19)
(7.31876 0.00124161 -4.34667e-19)
(7.31636 0.00196324 7.06169e-19)
(7.31391 0.00268192 0)
(7.31139 0.00339032 -2.91651e-19)
(7.30882 0.00408071 3.02313e-19)
(7.30619 0.00474452 3.36923e-19)
(7.3035 0.00537214 1.89007e-19)
(7.30074 0.00595338 -2.06937e-19)
(7.29791 0.00647649 2.26515e-19)
(7.29501 0.00692934 0)
(7.29203 0.00729822 2.69946e-19)
(7.28897 0.00756832 -6.37318e-21)
(7.28582 0.00772353 1.52655e-19)
(7.28257 0.00774698 -6.65634e-21)
(7.27922 0.00761998 5.81986e-19)
(7.27576 0.00732251 7.95817e-21)
(7.27218 0.00683344 8.72495e-21)
(7.26846 0.00613007 -5.04702e-19)
(7.26459 0.00518821 2.76739e-19)
(7.26056 0.00398228 -1.55409e-19)
(7.25635 0.00248498 -6.42878e-21)
(7.25194 0.000667753 3.60868e-19)
(7.24732 -0.00149997 -2.04743e-19)
(7.24246 -0.00405011 -2.23984e-19)
(7.23733 -0.00701663 -2.54055e-21)
(7.23191 -0.0104351 6.64742e-19)
(7.22618 -0.0143432 -2.92362e-19)
(7.2201 -0.0187807 1.57471e-19)
(7.21363 -0.0237897 0)
(7.20675 -0.0294148 -1.98429e-19)
(7.1994 -0.0357032 4.30787e-19)
(7.19156 -0.0427054 1.2203e-19)
(7.18317 -0.0504752 -2.62401e-19)
(7.17418 -0.0590698 -1.42667e-19)
(7.16455 -0.0685522 0)
(7.15422 -0.0789881 1.75508e-19)
(7.14311 -0.0904508 8.98663e-22)
(7.13118 -0.103019 -1.38558e-22)
(7.11835 -0.116778 0)
(7.10453 -0.131823 5.52109e-19)
(7.08965 -0.14826 0)
(7.07362 -0.166202 1.76966e-19)
(7.05634 -0.185781 -1.87697e-19)
(7.03769 -0.20714 -2.10239e-19)
(7.01757 -0.230442 -1.24322e-19)
(6.99583 -0.25587 -1.32632e-19)
(6.97234 -0.283637 0)
(6.94693 -0.313981 0)
(6.91944 -0.347178 -1.88498e-19)
(6.88966 -0.38355 -1.13186e-19)
(6.85738 -0.423472 1.05104e-19)
(6.82235 -0.467381 2.70954e-19)
(6.7843 -0.515803 4.69826e-19)
(6.74292 -0.569354 -1.74038e-19)
(6.69786 -0.628794 2.09535e-19)
(6.64874 -0.695012 1.52746e-20)
(6.59511 -0.769184 2.69835e-19)
(6.53653 -0.85255 0)
(6.47235 -0.947269 0)
(6.4023 -1.0545 -3.94898e-19)
(6.32504 -1.17986 1.10859e-19)
(6.24199 -1.32036 7.2245e-20)
(6.14786 -1.49743 6.66231e-20)
(6.05492 -1.67963 -2.16129e-19)
(5.93447 -1.96331 -1.14301e-19)
(5.85946 -2.17367 3.44553e-19)
(5.6764 -2.72075 -2.91908e-19)
(5.75434 -2.87 -2.32176e-20)
(5.45023 -4.12147 -2.86595e-20)
(7.35129 -0.00556469 1.72438e-19)
(7.35043 -0.00619164 0)
(7.35062 -0.00520146 2.69164e-19)
(7.34978 -0.00527769 0)
(7.3486 -0.00542266 3.51362e-19)
(7.34743 -0.00526142 -3.69987e-19)
(7.34615 -0.0050019 2.06031e-19)
(7.34473 -0.00471093 4.69308e-19)
(7.3432 -0.00435754 -5.16996e-19)
(7.34159 -0.00393871 -1.42244e-20)
(7.3399 -0.00346659 3.08915e-19)
(7.33813 -0.00294692 0)
(7.33629 -0.00238247 3.89503e-19)
(7.33439 -0.00177692 -4.30114e-19)
(7.33242 -0.00113439 -4.74292e-19)
(7.33039 -0.000458761 2.49844e-19)
(7.3283 0.000246142 -8.48902e-21)
(7.32615 0.000976017 0)
(7.32394 0.00172654 -3.43814e-19)
(7.32166 0.00249282 -7.62972e-19)
(7.31933 0.00326961 2.11405e-19)
(7.31694 0.00405118 -4.612e-19)
(7.31448 0.00483136 -2.51549e-19)
(7.31196 0.00560308 0)
(7.30937 0.00635892 3.03595e-19)
(7.30671 0.00709035 3.33368e-19)
(7.30398 0.00778831 0)
(7.30118 0.00844275 0)
(7.29829 0.0090427 0)
(7.29532 0.00957624 5.96555e-21)
(7.29226 0.0100304 -2.56145e-19)
(7.2891 0.0103909 -5.78202e-19)
(7.28584 0.0106426 -3.19859e-19)
(7.28247 0.0107692 3.49999e-19)
(7.27898 0.0107529 -1.91992e-19)
(7.27535 0.010575 -2.10645e-19)
(7.27159 0.010215 2.35529e-19)
(7.26767 0.00965147 8.41775e-21)
(7.26358 0.00886139 -2.72345e-19)
(7.2593 0.00782042 -4.61595e-19)
(7.25482 0.00650264 1.64015e-19)
(7.25012 0.00488075 0)
(7.24517 0.00292565 -2.06317e-19)
(7.23996 0.000606954 2.13506e-19)
(7.23446 -0.00210798 -2.41675e-19)
(7.22864 -0.00525293 -2.65883e-19)
(7.22247 -0.00886432 -3.0008e-19)
(7.21592 -0.0129802 0)
(7.20895 -0.0176412 -1.83125e-19)
(7.20154 -0.0228902 1.96479e-19)
(7.19362 -0.0287729 7.17346e-21)
(7.18517 -0.0353381 0)
(7.17614 -0.0426378 1.27001e-19)
(7.16647 -0.0507278 3.01503e-19)
(7.15611 -0.0596695 -3.35013e-19)
(7.145 -0.0695261 1.81528e-19)
(7.13308 -0.0803692 4.1548e-19)
(7.12028 -0.0922769 -4.60887e-19)
(7.10652 -0.105332 0)
(7.09172 -0.119628 -2.81037e-19)
(7.0758 -0.135268 -3.29342e-19)
(7.05866 -0.152364 -1.75797e-19)
(7.04019 -0.171044 -2.08241e-19)
(7.02028 -0.191451 1.03777e-19)
(6.99879 -0.213745 3.71986e-19)
(6.97561 -0.238108 -1.47784e-19)
(6.95056 -0.264747 4.87614e-19)
(6.92348 -0.2939 -1.87631e-19)
(6.89417 -0.325843 3.05165e-19)
(6.86243 -0.360894 1.25319e-19)
(6.82801 -0.399425 2.54462e-19)
(6.79065 -0.441875 0)
(6.75004 -0.488767 1.73548e-19)
(6.70584 -0.540721 -8.64878e-20)
(6.65765 -0.598499 -4.26334e-19)
(6.60504 -0.663004 7.1289e-21)
(6.54749 -0.735414 -2.7923e-19)
(6.48448 -0.817024 7.21816e-20)
(6.41526 -0.909943 1.81055e-19)
(6.33939 -1.01561 7.22064e-19)
(6.25544 -1.1392 -1.20313e-19)
(6.1644 -1.27911 -6.75498e-19)
(6.06117 -1.45432 -3.09374e-19)
(5.95653 -1.63935 3.50441e-19)
(5.82387 -1.92038 7.29507e-19)
(5.72997 -2.14296 -3.93271e-19)
(5.53307 -2.68882 3.90053e-19)
(5.57644 -2.86412 -2.68108e-20)
(5.24527 -4.12763 2.2588e-19)
(7.3516 -0.00452662 3.51454e-19)
(7.3506 -0.0051356 2.66773e-19)
(7.35074 -0.00422658 2.69811e-19)
(7.34995 -0.00419429 0)
(7.34879 -0.00426177 0)
(7.34763 -0.00406059 0)
(7.34638 -0.003753 4.21742e-19)
(7.34499 -0.00340946 -2.15162e-19)
(7.3435 -0.00300623 2.49648e-19)
(7.34192 -0.00253798 -2.85588e-19)
(7.34026 -0.00201508 3.00761e-19)
(7.33853 -0.00144364 3.48662e-19)
(7.33673 -0.000826547 -3.67196e-19)
(7.33485 -0.000167281 0)
(7.33292 0.000530192 2.22998e-19)
(7.33091 0.00126204 -2.96214e-21)
(7.32885 0.0020245 -2.75301e-19)
(7.32672 0.00281336 -3.03381e-19)
(7.32453 0.00362434 3.40357e-19)
(7.32227 0.00445277 6.61902e-21)
(7.31995 0.00529348 2.09035e-19)
(7.31756 0.00614095 6.38245e-21)
(7.3151 0.00698906 2.49075e-19)
(7.31257 0.00783125 -2.69624e-19)
(7.30997 0.00866015 -6.05877e-19)
(7.30729 0.00946767 3.17344e-19)
(7.30453 0.0102451 3.68282e-19)
(7.30168 0.0109828 -5.79353e-19)
(7.29874 0.0116702 -2.13066e-19)
(7.29571 0.0122961 2.39478e-19)
(7.29258 0.0128478 -2.60946e-19)
(7.28933 0.0133121 7.07179e-21)
(7.28596 0.0136746 -3.09577e-19)
(7.28247 0.0139195 -6.92899e-19)
(7.27885 0.0140301 1.90255e-19)
(7.27507 0.0139885 -4.74468e-21)
(7.27113 0.0137754 -9.48181e-21)
(7.26702 0.0133704 7.51604e-19)
(7.26272 0.0127516 2.83432e-19)
(7.25821 0.0118961 1.60487e-19)
(7.25347 0.010779 -1.64382e-19)
(7.24849 0.00937458 0)
(7.24324 0.00765503 2.08081e-19)
(7.2377 0.00559131 2.70042e-21)
(7.23184 0.00315254 2.49322e-19)
(7.22564 0.000306162 2.79447e-19)
(7.21906 -0.00298253 -3.01533e-19)
(7.21206 -0.00675014 0)
(7.20462 -0.0110353 -7.13639e-21)
(7.1967 -0.0158797 -9.84727e-21)
(7.18824 -0.021327 -2.3402e-19)
(7.17921 -0.0274247 5.0323e-19)
(7.16956 -0.0342224 1.09034e-20)