/*--------------------------------*- C++ -*----------------------------------*\
  =========                 |
  \\      /  F ield         | OpenFOAM: The Open Source CFD Toolbox
   \\    /   O peration     | Website:  https://openfoam.org
    \\  /    A nd           | Version:  11
     \\/     M anipulation  |
\*---------------------------------------------------------------------------*/
FoamFile
{
    format      ascii;
    class       volScalarField;
    location    "350";
    object      nuTilda;
}
// * * * * * * * * * * * * * * * * * * * * * * * * * * * * * * * * * * * * * //

dimensions      [0 2 -1 0 0 0 0];

internalField   nonuniform List<scalar> 
31595
(
0.140021
0.140029
0.140026
0.140024
0.140019
0.140014
0.140009
0.140005
0.140003
0.140004
0.140008
0.140012
0.140016
0.140019
0.140022
0.140025
0.140028
0.140031
0.140033
0.140035
0.140037
0.140039
0.140041
0.140043
0.140045
0.140046
0.140048
0.140049
0.14005
0.140051
0.140052
0.140053
0.140054
0.140055
0.140056
0.140057
0.140057
0.140058
0.140058
0.140059
0.140059
0.140059
0.140059
0.140059
0.140059
0.140058
0.140058
0.140057
0.140056
0.140055
0.140052
0.140048
0.140043
0.140038
0.140033
0.140028
0.140023
0.140018
0.140012
0.140006
0.139999
0.139991
0.139983
0.139975
0.139965
0.139954
0.139943
0.13993
0.139915
0.139899
0.139881
0.139861
0.139836
0.139808
0.139775
0.139735
0.139688
0.139627
0.139557
0.139462
0.139354
0.139183
0.13899
0.138693
0.138339
0.137462
0.136365
0.13116
0.247908
0.140014
0.140023
0.140024
0.14002
0.140017
0.140012
0.140008
0.140004
0.140003
0.140004
0.140008
0.140012
0.140015
0.140019
0.140022
0.140025
0.140028
0.14003
0.140033
0.140035
0.140037
0.140039
0.140041
0.140043
0.140044
0.140046
0.140047
0.140049
0.14005
0.140051
0.140052
0.140053
0.140054
0.140055
0.140056
0.140056
0.140057
0.140058
0.140058
0.140058
0.140059
0.140059
0.140059
0.140059
0.140059
0.140059
0.140059
0.140058
0.140057
0.140056
0.140053
0.140049
0.140044
0.140039
0.140034
0.140029
0.140024
0.140018
0.140012
0.140006
0.139999
0.139992
0.139984
0.139975
0.139965
0.139954
0.139942
0.139929
0.139915
0.139899
0.13988
0.139859
0.139835
0.139807
0.139773
0.139734
0.139687
0.139627
0.139558
0.139464
0.139357
0.139188
0.139006
0.138692
0.138423
0.13745
0.136454
0.129971
0.240017
0.140012
0.14002
0.14002
0.140018
0.140015
0.140011
0.140007
0.140004
0.140003
0.140005
0.140008
0.140012
0.140016
0.140019
0.140022
0.140025
0.140027
0.14003
0.140032
0.140034
0.140037
0.140039
0.14004
0.140042
0.140044
0.140045
0.140047
0.140048
0.140049
0.140051
0.140052
0.140053
0.140054
0.140054
0.140055
0.140056
0.140057
0.140057
0.140058
0.140058
0.140059
0.140059
0.140059
0.140059
0.140059
0.140059
0.140058
0.140058
0.140057
0.140056
0.140054
0.14005
0.140045
0.140041
0.140036
0.140031
0.140026
0.140021
0.140015
0.140009
0.140002
0.139995
0.139988
0.139979
0.13997
0.139959
0.139948
0.139935
0.139921
0.139904
0.139886
0.139865
0.139842
0.139814
0.139782
0.139745
0.139699
0.139645
0.139576
0.13949
0.139375
0.139229
0.139017
0.138752
0.138402
0.137472
0.136437
0.128838
0.232846
0.140009
0.140016
0.140017
0.140015
0.140012
0.140009
0.140006
0.140003
0.140003
0.140005
0.140009
0.140012
0.140016
0.140019
0.140022
0.140024
0.140027
0.14003
0.140032
0.140034
0.140036
0.140038
0.14004
0.140042
0.140043
0.140045
0.140046
0.140048
0.140049
0.14005
0.140051
0.140052
0.140053
0.140054
0.140055
0.140056
0.140056
0.140057
0.140058
0.140058
0.140058
0.140059
0.140059
0.140059
0.140059
0.140059
0.140059
0.140058
0.140057
0.140056
0.140054
0.140051
0.140046
0.140042
0.140037
0.140033
0.140028
0.140023
0.140017
0.140011
0.140005
0.139998
0.13999
0.139982
0.139973
0.139963
0.139952
0.139939
0.139926
0.13991
0.139892
0.139872
0.139849
0.139823
0.139792
0.139756
0.139712
0.139659
0.139593
0.13951
0.139403
0.139258
0.139062
0.13877
0.138416
0.137479
0.13644
0.127718
0.225917
0.140006
0.140013
0.140014
0.140013
0.14001
0.140007
0.140004
0.140002
0.140003
0.140006
0.140009
0.140013
0.140016
0.140019
0.140022
0.140024
0.140027
0.140029
0.140032
0.140034
0.140036
0.140038
0.14004
0.140042
0.140043
0.140045
0.140046
0.140048
0.140049
0.14005
0.140051
0.140052
0.140053
0.140054
0.140055
0.140056
0.140056
0.140057
0.140057
0.140058
0.140058
0.140058
0.140059
0.140059
0.140059
0.140059
0.140059
0.140058
0.140057
0.140056
0.140054
0.140051
0.140047
0.140043
0.140039
0.140034
0.14003
0.140025
0.140019
0.140013
0.140007
0.140001
0.139993
0.139985
0.139976
0.139967
0.139956
0.139944
0.13993
0.139915
0.139898
0.139879
0.139857
0.139831
0.139801
0.139766
0.139724
0.139673
0.139609
0.139529
0.139426
0.139286
0.139096
0.138808
0.138427
0.137503
0.136461
0.126836
0.219342
0.140005
0.14001
0.140011
0.14001
0.140008
0.140006
0.140003
0.140002
0.140004
0.140007
0.14001
0.140013
0.140016
0.140019
0.140022
0.140025
0.140027
0.140029
0.140032
0.140034
0.140036
0.140038
0.14004
0.140041
0.140043
0.140045
0.140046
0.140047
0.140049
0.14005
0.140051
0.140052
0.140053
0.140054
0.140055
0.140055
0.140056
0.140057
0.140057
0.140058
0.140058
0.140058
0.140059
0.140059
0.140059
0.140059
0.140059
0.140058
0.140058
0.140057
0.140055
0.140052
0.140048
0.140044
0.14004
0.140036
0.140031
0.140026
0.140021
0.140015
0.140009
0.140003
0.139996
0.139988
0.139979
0.13997
0.139959
0.139948
0.139935
0.13992
0.139903
0.139885
0.139863
0.139838
0.139809
0.139775
0.139734
0.139685
0.139624
0.139546
0.139446
0.139313
0.139127
0.138852
0.138439
0.137584
0.136482
0.127295
0.212439
0.140004
0.140008
0.140009
0.140008
0.140006
0.140004
0.140002
0.140003
0.140005
0.140008
0.140011
0.140014
0.140017
0.14002
0.140022
0.140025
0.140027
0.14003
0.140032
0.140034
0.140036
0.140038
0.14004
0.140041
0.140043
0.140044
0.140046
0.140047
0.140048
0.14005
0.140051
0.140052
0.140053
0.140054
0.140054
0.140055
0.140056
0.140056
0.140057
0.140058
0.140058
0.140058
0.140059
0.140059
0.140059
0.140059
0.140059
0.140058
0.140058
0.140057
0.140055
0.140052
0.140049
0.140045
0.140041
0.140037
0.140032
0.140028
0.140023
0.140017
0.140011
0.140005
0.139998
0.139991
0.139982
0.139973
0.139963
0.139951
0.139939
0.139924
0.139908
0.13989
0.139869
0.139845
0.139817
0.139784
0.139744
0.139696
0.139637
0.139563
0.139465
0.139337
0.139157
0.138891
0.138483
0.137667
0.136531
0.127553
0.20614
0.140003
0.140006
0.140007
0.140006
0.140005
0.140003
0.140002
0.140003
0.140006
0.140009
0.140012
0.140015
0.140017
0.14002
0.140023
0.140025
0.140027
0.14003
0.140032
0.140034
0.140036
0.140038
0.140039
0.140041
0.140043
0.140044
0.140046
0.140047
0.140048
0.140049
0.140051
0.140052
0.140053
0.140053
0.140054
0.140055
0.140056
0.140056
0.140057
0.140057
0.140058
0.140058
0.140058
0.140059
0.140059
0.140059
0.140059
0.140058
0.140058
0.140057
0.140055
0.140053
0.140049
0.140046
0.140042
0.140038
0.140034
0.140029
0.140024
0.140019
0.140013
0.140007
0.14
0.139993
0.139985
0.139976
0.139966
0.139955
0.139942
0.139928
0.139913
0.139895
0.139875
0.139851
0.139824
0.139792
0.139754
0.139707
0.13965
0.139577
0.139484
0.139359
0.139185
0.138927
0.138534
0.137745
0.136642
0.127844
0.199919
0.140002
0.140004
0.140005
0.140004
0.140003
0.140002
0.140002
0.140004
0.140007
0.14001
0.140012
0.140015
0.140018
0.14002
0.140023
0.140025
0.140028
0.14003
0.140032
0.140034
0.140036
0.140038
0.14004
0.140041
0.140043
0.140044
0.140046
0.140047
0.140048
0.140049
0.14005
0.140051
0.140052
0.140053
0.140054
0.140055
0.140056
0.140056
0.140057
0.140057
0.140058
0.140058
0.140058
0.140059
0.140059
0.140059
0.140059
0.140058
0.140058
0.140057
0.140056
0.140053
0.14005
0.140047
0.140043
0.140039
0.140035
0.14003
0.140026
0.14002
0.140015
0.140009
0.140002
0.139995
0.139987
0.139978
0.139969
0.139958
0.139946
0.139932
0.139917
0.1399
0.13988
0.139857
0.139831
0.139799
0.139762
0.139717
0.139661
0.139591
0.1395
0.139379
0.139212
0.138961
0.138581
0.137819
0.136781
0.128126
0.194062
0.140001
0.140003
0.140004
0.140003
0.140002
0.140002
0.140003
0.140005
0.140008
0.140011
0.140013
0.140016
0.140018
0.140021
0.140023
0.140026
0.140028
0.14003
0.140032
0.140034
0.140036
0.140038
0.14004
0.140041
0.140043
0.140044
0.140046
0.140047
0.140048
0.140049
0.14005
0.140051
0.140052
0.140053
0.140054
0.140055
0.140056
0.140056
0.140057
0.140057
0.140058
0.140058
0.140058
0.140059
0.140059
0.140059
0.140059
0.140058
0.140058
0.140057
0.140056
0.140054
0.140051
0.140047
0.140044
0.14004
0.140036
0.140032
0.140027
0.140022
0.140017
0.140011
0.140004
0.139997
0.139989
0.139981
0.139971
0.139961
0.139949
0.139936
0.139921
0.139904
0.139885
0.139862
0.139837
0.139806
0.13977
0.139726
0.139671
0.139603
0.139515
0.139397
0.139234
0.138994
0.138621
0.137888
0.13688
0.128497
0.188805
0.140001
0.140002
0.140002
0.140002
0.140001
0.140002
0.140004
0.140006
0.140009
0.140012
0.140014
0.140017
0.140019
0.140021
0.140024
0.140026
0.140028
0.14003
0.140032
0.140034
0.140036
0.140038
0.14004
0.140041
0.140043
0.140044
0.140046
0.140047
0.140048
0.140049
0.14005
0.140051
0.140052
0.140053
0.140054
0.140055
0.140055
0.140056
0.140057
0.140057
0.140058
0.140058
0.140058
0.140059
0.140059
0.140059
0.140059
0.140059
0.140058
0.140057
0.140056
0.140054
0.140051
0.140048
0.140044
0.140041
0.140037
0.140033
0.140028
0.140023
0.140018
0.140012
0.140006
0.139999
0.139991
0.139983
0.139974
0.139963
0.139952
0.139939
0.139924
0.139908
0.139889
0.139867
0.139842
0.139813
0.139777
0.139734
0.139681
0.139615
0.139529
0.139415
0.139256
0.139024
0.13866
0.137954
0.136978
0.12888
0.183744
0.14
0.140001
0.140001
0.140001
0.140001
0.140003
0.140005
0.140008
0.14001
0.140012
0.140015
0.140017
0.14002
0.140022
0.140024
0.140027
0.140029
0.140031
0.140033
0.140035
0.140036
0.140038
0.14004
0.140041
0.140043
0.140044
0.140046
0.140047
0.140048
0.140049
0.14005
0.140051
0.140052
0.140053
0.140054
0.140055
0.140055
0.140056
0.140057
0.140057
0.140058
0.140058
0.140058
0.140059
0.140059
0.140059
0.140059
0.140059
0.140058
0.140057
0.140056
0.140054
0.140052
0.140049
0.140045
0.140042
0.140038
0.140034
0.140029
0.140024
0.140019
0.140014
0.140007
0.140001
0.139993
0.139985
0.139976
0.139966
0.139955
0.139942
0.139928
0.139912
0.139893
0.139872
0.139847
0.139818
0.139784
0.139742
0.13969
0.139626
0.139542
0.139431
0.139278
0.139052
0.138701
0.138018
0.137086
0.129243
0.178722
0.14
0.140001
0.140001
0.140001
0.140002
0.140004
0.140006
0.140009
0.140011
0.140013
0.140016
0.140018
0.14002
0.140023
0.140025
0.140027
0.140029
0.140031
0.140033
0.140035
0.140037
0.140038
0.14004
0.140042
0.140043
0.140044
0.140046
0.140047
0.140048
0.140049
0.14005
0.140051
0.140052
0.140053
0.140054
0.140055
0.140055
0.140056
0.140057
0.140057
0.140058
0.140058
0.140058
0.140059
0.140059
0.140059
0.140059
0.140059
0.140058
0.140058
0.140056
0.140054
0.140052
0.140049
0.140046
0.140042
0.140039
0.140035
0.14003
0.140026
0.14002
0.140015
0.140009
0.140002
0.139995
0.139987
0.139978
0.139968
0.139957
0.139945
0.139931
0.139915
0.139897
0.139876
0.139852
0.139823
0.139789
0.139748
0.139698
0.139635
0.139554
0.139446
0.139297
0.139077
0.13874
0.138078
0.137191
0.129598
0.173987
0.14
0.140001
0.140001
0.140002
0.140004
0.140006
0.140008
0.14001
0.140012
0.140014
0.140017
0.140019
0.140021
0.140023
0.140026
0.140028
0.14003
0.140032
0.140034
0.140035
0.140037
0.140039
0.14004
0.140042
0.140043
0.140045
0.140046
0.140047
0.140048
0.140049
0.14005
0.140051
0.140052
0.140053
0.140054
0.140055
0.140055
0.140056
0.140057
0.140057
0.140058
0.140058
0.140058
0.140059
0.140059
0.140059
0.140059
0.140059
0.140058
0.140058
0.140057
0.140055
0.140053
0.140049
0.140046
0.140043
0.140039
0.140035
0.140031
0.140027
0.140022
0.140016
0.14001
0.140004
0.139997
0.139989
0.13998
0.13997
0.139959
0.139947
0.139933
0.139918
0.1399
0.13988
0.139856
0.139828
0.139794
0.139754
0.139705
0.139643
0.139563
0.139457
0.139311
0.139098
0.138766
0.138126
0.137243
0.130017
0.169743
0.14
0.140001
0.140002
0.140003
0.140005
0.140007
0.140009
0.140011
0.140013
0.140015
0.140017
0.14002
0.140022
0.140024
0.140026
0.140028
0.14003
0.140032
0.140034
0.140036
0.140037
0.140039
0.140041
0.140042
0.140044
0.140045
0.140046
0.140047
0.140049
0.14005
0.140051
0.140052
0.140052
0.140053
0.140054
0.140055
0.140056
0.140056
0.140057
0.140057
0.140058
0.140058
0.140058
0.140059
0.140059
0.140059
0.140059
0.140059
0.140059
0.140058
0.140057
0.140055
0.140053
0.14005
0.140047
0.140044
0.14004
0.140036
0.140032
0.140028
0.140023
0.140017
0.140011
0.140005
0.139998
0.13999
0.139982
0.139972
0.139961
0.139949
0.139936
0.139921
0.139903
0.139883
0.13986
0.139833
0.1398
0.13976
0.139712
0.139651
0.139574
0.139471
0.139329
0.139122
0.1388
0.138183
0.137326
0.130423
0.16544
0.14
0.140001
0.140002
0.140004
0.140006
0.140007
0.14001
0.140012
0.140014
0.140016
0.140018
0.140021
0.140023
0.140025
0.140027
0.140029
0.140031
0.140033
0.140034
0.140036
0.140038
0.140039
0.140041
0.140042
0.140044
0.140045
0.140046
0.140048
0.140049
0.14005
0.140051
0.140052
0.140053
0.140053
0.140054
0.140055
0.140056
0.140056
0.140057
0.140057
0.140058
0.140058
0.140059
0.140059
0.140059
0.140059
0.140059
0.140059
0.140059
0.140058
0.140057
0.140055
0.140053
0.14005
0.140047
0.140044
0.140041
0.140037
0.140033
0.140028
0.140024
0.140018
0.140013
0.140006
0.139999
0.139992
0.139983
0.139974
0.139963
0.139952
0.139938
0.139923
0.139906
0.139887
0.139864
0.139837
0.139805
0.139766
0.139718
0.139659
0.139583
0.139483
0.139344
0.139143
0.138831
0.138237
0.137405
0.130825
0.161269
0.140001
0.140002
0.140003
0.140005
0.140006
0.140008
0.14001
0.140013
0.140015
0.140017
0.140019
0.140021
0.140023
0.140026
0.140028
0.14003
0.140031
0.140033
0.140035
0.140037
0.140038
0.14004
0.140041
0.140043
0.140044
0.140045
0.140047
0.140048
0.140049
0.14005
0.140051
0.140052
0.140053
0.140054
0.140054
0.140055
0.140056
0.140056
0.140057
0.140057
0.140058
0.140058
0.140059
0.140059
0.140059
0.140059
0.140059
0.140059
0.140059
0.140058
0.140057
0.140056
0.140053
0.140051
0.140048
0.140045
0.140041
0.140038
0.140034
0.140029
0.140025
0.140019
0.140014
0.140008
0.140001
0.139993
0.139985
0.139975
0.139965
0.139954
0.139941
0.139926
0.139909
0.13989
0.139867
0.139841
0.139809
0.139771
0.139725
0.139667
0.139592
0.139494
0.139359
0.139162
0.138857
0.138282
0.137454
0.131235
0.15737
0.140001
0.140002
0.140004
0.140005
0.140007
0.140009
0.140011
0.140013
0.140016
0.140018
0.14002
0.140022
0.140024
0.140026
0.140028
0.14003
0.140032
0.140034
0.140036
0.140037
0.140039
0.14004
0.140042
0.140043
0.140044
0.140046
0.140047
0.140048
0.140049
0.14005
0.140051
0.140052
0.140053
0.140054
0.140054
0.140055
0.140056
0.140056
0.140057
0.140058
0.140058
0.140058
0.140059
0.140059
0.140059
0.140059
0.140059
0.140059
0.140059
0.140058
0.140058
0.140056
0.140054
0.140051
0.140048
0.140045
0.140042
0.140038
0.140034
0.14003
0.140025
0.14002
0.140015
0.140009
0.140002
0.139994
0.139986
0.139977
0.139967
0.139956
0.139943
0.139928
0.139912
0.139893
0.13987
0.139844
0.139813
0.139776
0.13973
0.139673
0.1396
0.139504
0.139372
0.139179
0.138881
0.138323
0.137495
0.131658
0.153555
0.140001
0.140003
0.140004
0.140006
0.140008
0.14001
0.140012
0.140014
0.140017
0.140019
0.140021
0.140023
0.140025
0.140027
0.140029
0.140031
0.140033
0.140034
0.140036
0.140038
0.140039
0.140041
0.140042
0.140044
0.140045
0.140046
0.140047
0.140048
0.140049
0.14005
0.140051
0.140052
0.140053
0.140054
0.140055
0.140055
0.140056
0.140057
0.140057
0.140058
0.140058
0.140058
0.140059
0.140059
0.140059
0.140059
0.140059
0.140059
0.140059
0.140058
0.140057
0.140056
0.140054
0.140051
0.140049
0.140046
0.140042
0.140039
0.140035
0.140031
0.140026
0.140021
0.140016
0.140009
0.140003
0.139995
0.139987
0.139978
0.139969
0.139957
0.139945
0.13993
0.139914
0.139895
0.139873
0.139847
0.139817
0.13978
0.139735
0.139679
0.139608
0.139513
0.139384
0.139197
0.138904
0.138372
0.137537
0.132102
0.149752
0.140001
0.140003
0.140005
0.140007
0.140009
0.140011
0.140013
0.140015
0.140017
0.14002
0.140022
0.140024
0.140026
0.140028
0.14003
0.140032
0.140033
0.140035
0.140037
0.140038
0.14004
0.140041
0.140043
0.140044
0.140045
0.140046
0.140048
0.140049
0.14005
0.140051
0.140052
0.140053
0.140053
0.140054
0.140055
0.140056
0.140056
0.140057
0.140057
0.140058
0.140058
0.140059
0.140059
0.140059
0.140059
0.140059
0.140059
0.140059
0.140059
0.140059
0.140058
0.140056
0.140054
0.140052
0.140049
0.140046
0.140043
0.140039
0.140035
0.140031
0.140027
0.140022
0.140016
0.14001
0.140004
0.139997
0.139989
0.13998
0.13997
0.139959
0.139947
0.139933
0.139916
0.139898
0.139876
0.139851
0.139821
0.139785
0.139741
0.139686
0.139616
0.139524
0.139397
0.139214
0.138929
0.138412
0.137565
0.132535
0.146068
0.140001
0.140003
0.140005
0.140007
0.140009
0.140012
0.140014
0.140016
0.140018
0.14002
0.140022
0.140025
0.140027
0.140029
0.14003
0.140032
0.140034
0.140036
0.140037
0.140039
0.14004
0.140042
0.140043
0.140044
0.140046
0.140047
0.140048
0.140049
0.14005
0.140051
0.140052
0.140053
0.140054
0.140054
0.140055
0.140056
0.140056
0.140057
0.140057
0.140058
0.140058
0.140059
0.140059
0.140059
0.140059
0.14006
0.14006
0.14006
0.140059
0.140059
0.140058
0.140057
0.140055
0.140052
0.140049
0.140046
0.140043
0.14004
0.140036
0.140032
0.140027
0.140023
0.140017
0.140011
0.140005
0.139998
0.13999
0.139981
0.139971
0.13996
0.139948
0.139934
0.139918
0.139899
0.139878
0.139853
0.139823
0.139787
0.139744
0.13969
0.139621
0.13953
0.139405
0.139225
0.138943
0.138442
0.137569
0.132971
0.142396
0.140001
0.140003
0.140006
0.140008
0.14001
0.140012
0.140015
0.140017
0.140019
0.140021
0.140023
0.140025
0.140027
0.140029
0.140031
0.140033
0.140035
0.140036
0.140038
0.140039
0.140041
0.140042
0.140044
0.140045
0.140046
0.140047
0.140048
0.140049
0.14005
0.140051
0.140052
0.140053
0.140054
0.140055
0.140055
0.140056
0.140057
0.140057
0.140058
0.140058
0.140058
0.140059
0.140059
0.140059
0.14006
0.14006
0.14006
0.14006
0.140059
0.140059
0.140058
0.140056
0.140054
0.140052
0.140049
0.140047
0.140044
0.14004
0.140036
0.140032
0.140028
0.140023
0.140018
0.140012
0.140006
0.139999
0.139991
0.139982
0.139972
0.139961
0.139949
0.139935
0.139919
0.139901
0.139879
0.139855
0.139825
0.13979
0.139747
0.139694
0.139626
0.139537
0.139414
0.139238
0.138958
0.138482
0.137572
0.133483
0.138625
0.140001
0.140004
0.140006
0.140008
0.140011
0.140013
0.140015
0.140018
0.14002
0.140022
0.140024
0.140026
0.140028
0.14003
0.140032
0.140034
0.140035
0.140037
0.140039
0.14004
0.140041
0.140043
0.140044
0.140045
0.140047
0.140048
0.140049
0.14005
0.140051
0.140052
0.140053
0.140053
0.140054
0.140055
0.140056
0.140056
0.140057
0.140057
0.140058
0.140058
0.140059
0.140059
0.140059
0.14006
0.14006
0.14006
0.14006
0.14006
0.14006
0.140059
0.140058
0.140057
0.140055
0.140053
0.14005
0.140047
0.140044
0.140041
0.140037
0.140033
0.140029
0.140024
0.140019
0.140013
0.140007
0.14
0.139992
0.139983
0.139974
0.139963
0.13995
0.139937
0.139921
0.139903
0.139882
0.139857
0.139829
0.139794
0.139752
0.1397
0.139633
0.139545
0.139424
0.139252
0.138977
0.138517
0.13757
0.133968
0.134714
0.140001
0.140004
0.140006
0.140009
0.140011
0.140014
0.140016
0.140018
0.140021
0.140023
0.140025
0.140027
0.140029
0.140031
0.140033
0.140034
0.140036
0.140038
0.140039
0.140041
0.140042
0.140043
0.140045
0.140046
0.140047
0.140048
0.140049
0.14005
0.140051
0.140052
0.140053
0.140054
0.140054
0.140055
0.140056
0.140056
0.140057
0.140058
0.140058
0.140058
0.140059
0.140059
0.14006
0.14006
0.14006
0.14006
0.14006
0.14006
0.14006
0.140059
0.140059
0.140057
0.140056
0.140053
0.14005
0.140047
0.140044
0.140041
0.140037
0.140034
0.140029
0.140025
0.14002
0.140014
0.140007
0.14
0.139993
0.139984
0.139974
0.139963
0.139951
0.139937
0.139922
0.139904
0.139883
0.139859
0.13983
0.139796
0.139755
0.139703
0.139637
0.13955
0.139431
0.13926
0.138988
0.138544
0.137539
0.134489
0.130483
0.140001
0.140004
0.140007
0.140009
0.140012
0.140014
0.140017
0.140019
0.140021
0.140024
0.140026
0.140028
0.14003
0.140032
0.140033
0.140035
0.140037
0.140038
0.14004
0.140041
0.140043
0.140044
0.140045
0.140046
0.140047
0.140049
0.14005
0.140051
0.140051
0.140052
0.140053
0.140054
0.140055
0.140055
0.140056
0.140057
0.140057
0.140058
0.140058
0.140059
0.140059
0.140059
0.14006
0.14006
0.14006
0.14006
0.14006
0.14006
0.14006
0.140059
0.140058
0.140057
0.140054
0.140052
0.14005
0.140047
0.140045
0.140042
0.140038
0.140034
0.14003
0.140025
0.14002
0.140014
0.140007
0.14
0.139992
0.139984
0.139974
0.139963
0.139951
0.139937
0.139922
0.139904
0.139884
0.13986
0.139831
0.139797
0.139756
0.139705
0.139639
0.139552
0.139434
0.139265
0.138992
0.138571
0.137492
0.135139
0.125627
0.140001
0.140004
0.140007
0.14001
0.140012
0.140015
0.140017
0.14002
0.140022
0.140024
0.140026
0.140028
0.14003
0.140032
0.140034
0.140036
0.140037
0.140039
0.14004
0.140042
0.140043
0.140044
0.140046
0.140047
0.140048
0.140049
0.14005
0.140051
0.140052
0.140053
0.140054
0.140054
0.140055
0.140056
0.140056
0.140057
0.140058
0.140058
0.140058
0.140059
0.140059
0.14006
0.14006
0.14006
0.14006
0.14006
0.14006
0.14006
0.14006
0.14006
0.140059
0.140058
0.140056
0.140054
0.140051
0.140049
0.140046
0.140042
0.140039
0.140035
0.14003
0.140025
0.14002
0.140014
0.140007
0.14
0.139993
0.139984
0.139974
0.139964
0.139952
0.139938
0.139923
0.139905
0.139885
0.139861
0.139833
0.1398
0.139759
0.139708
0.139643
0.139557
0.13944
0.139273
0.139001
0.138595
0.137433
0.135795
0.119695
0.140002
0.140005
0.140008
0.14001
0.140013
0.140016
0.140018
0.140021
0.140023
0.140025
0.140027
0.140029
0.140031
0.140033
0.140035
0.140036
0.140038
0.14004
0.140041
0.140042
0.140044
0.140045
0.140046
0.140047
0.140048
0.140049
0.14005
0.140051
0.140052
0.140053
0.140054
0.140055
0.140055
0.140056
0.140057
0.140057
0.140058
0.140058
0.140059
0.140059
0.14006
0.14006
0.14006
0.14006
0.14006
0.140061
0.140061
0.14006
0.14006
0.14006
0.140059
0.140058
0.140057
0.140054
0.140052
0.140049
0.140045
0.140042
0.140038
0.140034
0.140029
0.140024
0.140019
0.140013
0.140007
0.14
0.139993
0.139985
0.139975
0.139965
0.139953
0.13994
0.139925
0.139908
0.139888
0.139865
0.139838
0.139805
0.139765
0.139715
0.139652
0.139568
0.139454
0.139292
0.139025
0.138641
0.137412
0.136567
0.111946
0.140002
0.140005
0.140008
0.140011
0.140014
0.140016
0.140019
0.140021
0.140023
0.140026
0.140028
0.14003
0.140032
0.140034
0.140035
0.140037
0.140039
0.14004
0.140042
0.140043
0.140044
0.140046
0.140047
0.140048
0.140049
0.14005
0.140051
0.140052
0.140053
0.140054
0.140054
0.140055
0.140056
0.140056
0.140057
0.140058
0.140058
0.140059
0.140059
0.140059
0.14006
0.14006
0.14006
0.14006
0.140061
0.140061
0.140061
0.14006
0.14006
0.140059
0.140058
0.140056
0.140054
0.140052
0.140049
0.140047
0.140044
0.14004
0.140037
0.140033
0.140028
0.140024
0.140019
0.140013
0.140007
0.14
0.139993
0.139984
0.139975
0.139965
0.139953
0.13994
0.139925
0.139907
0.139887
0.139864
0.139836
0.139803
0.139762
0.139712
0.139647
0.139563
0.139447
0.139283
0.139012
0.138635
0.137335
0.137146
0.10202
0.140002
0.140005
0.140008
0.140011
0.140014
0.140017
0.140019
0.140022
0.140024
0.140026
0.140029
0.140031
0.140032
0.140034
0.140036
0.140038
0.140039
0.140041
0.140042
0.140044
0.140045
0.140046
0.140047
0.140048
0.140049
0.14005
0.140051
0.140052
0.140053
0.140054
0.140055
0.140055
0.140056
0.140057
0.140057
0.140058
0.140058
0.140059
0.140059
0.14006
0.14006
0.14006
0.140061
0.140061
0.140061
0.140061
0.140061
0.140061
0.140061
0.14006
0.140059
0.140058
0.140056
0.140054
0.140051
0.140049
0.140046
0.140042
0.140039
0.140035
0.140031
0.140026
0.140021
0.140015
0.140009
0.140002
0.139994
0.139986
0.139976
0.139966
0.139954
0.13994
0.139924
0.139906
0.139886
0.139861
0.139832
0.139798
0.139755
0.139703
0.139635
0.139547
0.139426
0.139255
0.138973
0.138576
0.137261
0.136889
0.102217
0.140002
0.140005
0.140008
0.140011
0.140014
0.140017
0.14002
0.140022
0.140025
0.140027
0.140029
0.140031
0.140033
0.140035
0.140037
0.140038
0.14004
0.140041
0.140043
0.140044
0.140045
0.140047
0.140048
0.140049
0.14005
0.140051
0.140052
0.140053
0.140054
0.140054
0.140055
0.140056
0.140056
0.140057
0.140058
0.140058
0.140059
0.140059
0.14006
0.14006
0.14006
0.140061
0.140061
0.140061
0.140061
0.140061
0.140061
0.140061
0.140061
0.14006
0.14006
0.140059
0.140057
0.140055
0.140052
0.14005
0.140047
0.140043
0.14004
0.140036
0.140032
0.140027
0.140022
0.140016
0.14001
0.140003
0.139996
0.139988
0.139978
0.139968
0.139956
0.139942
0.139927
0.139909
0.139889
0.139865
0.139837
0.139803
0.139761
0.13971
0.139644
0.139558
0.139439
0.139271
0.138997
0.138599
0.137374
0.136365
0.11204
0.140002
0.140005
0.140009
0.140012
0.140015
0.140018
0.14002
0.140023
0.140025
0.140028
0.14003
0.140032
0.140034
0.140036
0.140037
0.140039
0.14004
0.140042
0.140043
0.140045
0.140046
0.140047
0.140048
0.140049
0.14005
0.140051
0.140052
0.140053
0.140054
0.140055
0.140055
0.140056
0.140057
0.140057
0.140058
0.140058
0.140059
0.140059
0.14006
0.14006
0.14006
0.140061
0.140061
0.140061
0.140061
0.140061
0.140061
0.140061
0.140061
0.14006
0.140059
0.140057
0.140055
0.140053
0.14005
0.140047
0.140045
0.140041
0.140038
0.140034
0.14003
0.140025
0.14002
0.140015
0.140009
0.140002
0.139995
0.139987
0.139977
0.139967
0.139956
0.139943
0.139928
0.139911
0.139891
0.139868
0.13984
0.139807
0.139766
0.139716
0.139651
0.139566
0.13945
0.139283
0.139013
0.138597
0.137475
0.135573
0.120286
0.140002
0.140005
0.140009
0.140012
0.140015
0.140018
0.140021
0.140023
0.140026
0.140028
0.14003
0.140032
0.140034
0.140036
0.140038
0.140039
0.140041
0.140043
0.140044
0.140045
0.140047
0.140048
0.140049
0.14005
0.140051
0.140052
0.140053
0.140054
0.140054
0.140055
0.140056
0.140057
0.140057
0.140058
0.140058
0.140059
0.140059
0.14006
0.14006
0.14006
0.140061
0.140061
0.140061
0.140061
0.140061
0.140061
0.140061
0.140061
0.140061
0.14006
0.14006
0.140058
0.140056
0.140054
0.140051
0.140048
0.140045
0.140041
0.140037
0.140033
0.140029
0.140024
0.140019
0.140014
0.140008
0.140001
0.139993
0.139985
0.139976
0.139965
0.139954
0.139941
0.139926
0.139908
0.139888
0.139865
0.139837
0.139803
0.139762
0.139711
0.139645
0.139559
0.13944
0.13927
0.138998
0.138562
0.137514
0.134868
0.126342
0.140002
0.140006
0.140009
0.140012
0.140015
0.140018
0.140021
0.140024
0.140026
0.140028
0.140031
0.140033
0.140035
0.140037
0.140038
0.14004
0.140042
0.140043
0.140044
0.140046
0.140047
0.140048
0.140049
0.14005
0.140051
0.140052
0.140053
0.140054
0.140055
0.140056
0.140056
0.140057
0.140058
0.140058
0.140059
0.140059
0.14006
0.14006
0.14006
0.140061
0.140061
0.140061
0.140061
0.140062
0.140062
0.140062
0.140062
0.140062
0.140061
0.140061
0.14006
0.140059
0.140057
0.140055
0.140052
0.140049
0.140046
0.140042
0.140038
0.140034
0.14003
0.140025
0.14002
0.140014
0.140007
0.140001
0.139993
0.139984
0.139975
0.139964
0.139953
0.139939
0.139924
0.139906
0.139886
0.139862
0.139834
0.1398
0.139759
0.139707
0.13964
0.139553
0.139433
0.139261
0.138987
0.138536
0.137553
0.134301
0.131249
0.140002
0.140006
0.140009
0.140012
0.140016
0.140019
0.140021
0.140024
0.140026
0.140029
0.140031
0.140033
0.140035
0.140037
0.140039
0.14004
0.140042
0.140044
0.140045
0.140046
0.140048
0.140049
0.14005
0.140051
0.140052
0.140053
0.140054
0.140055
0.140055
0.140056
0.140057
0.140057
0.140058
0.140058
0.140059
0.140059
0.14006
0.14006
0.140061
0.140061
0.140061
0.140062
0.140062
0.140062
0.140062
0.140062
0.140062
0.140062
0.140061
0.140061
0.140059
0.140058
0.140056
0.140054
0.140052
0.140049
0.140046
0.140043
0.140039
0.140035
0.14003
0.140025
0.140019
0.140014
0.140007
0.14
0.139992
0.139984
0.139974
0.139964
0.139952
0.139939
0.139923
0.139906
0.139885
0.139861
0.139833
0.139799
0.139757
0.139705
0.139639
0.139551
0.13943
0.139255
0.138981
0.138505
0.137583
0.133695
0.135532
0.140002
0.140006
0.140009
0.140013
0.140016
0.140019
0.140022
0.140024
0.140027
0.140029
0.140031
0.140034
0.140036
0.140037
0.140039
0.140041
0.140043
0.140044
0.140045
0.140047
0.140048
0.140049
0.14005
0.140051
0.140052
0.140053
0.140054
0.140055
0.140056
0.140056
0.140057
0.140058
0.140058
0.140059
0.140059
0.14006
0.14006
0.140061
0.140061
0.140061
0.140062
0.140062
0.140062
0.140062
0.140062
0.140062
0.140062
0.140062
0.140061
0.140061
0.14006
0.140058
0.140056
0.140054
0.140051
0.140048
0.140045
0.140042
0.140039
0.140035
0.14003
0.140025
0.14002
0.140014
0.140007
0.14
0.139992
0.139983
0.139974
0.139963
0.139951
0.139937
0.139922
0.139904
0.139883
0.139859
0.13983
0.139796
0.139754
0.139701
0.139634
0.139545
0.139422
0.139245
0.138967
0.138475
0.137592
0.133211
0.139458
0.140002
0.140006
0.140009
0.140013
0.140016
0.140019
0.140022
0.140024
0.140027
0.140029
0.140032
0.140034
0.140036
0.140038
0.14004
0.140041
0.140043
0.140044
0.140046
0.140047
0.140049
0.14005
0.140051
0.140052
0.140053
0.140054
0.140055
0.140055
0.140056
0.140057
0.140058
0.140058
0.140059
0.140059
0.14006
0.14006
0.140061
0.140061
0.140061
0.140062
0.140062
0.140062
0.140062
0.140062
0.140062
0.140062
0.140062
0.140062
0.140062
0.140061
0.14006
0.140059
0.140057
0.140054
0.140051
0.140048
0.140045
0.140042
0.140038
0.140034
0.14003
0.140025
0.14002
0.140014
0.140007
0.14
0.139992
0.139983
0.139973
0.139962
0.13995
0.139936
0.13992
0.139902
0.139881
0.139857
0.139827
0.139792
0.13975
0.139696
0.139628
0.139537
0.139413
0.139233
0.13895
0.138445
0.137587
0.13277
0.143219
0.140002
0.140006
0.140009
0.140013
0.140016
0.140019
0.140022
0.140025
0.140027
0.14003
0.140032
0.140034
0.140036
0.140038
0.14004
0.140042
0.140043
0.140045
0.140046
0.140048
0.140049
0.14005
0.140051
0.140052
0.140053
0.140054
0.140055
0.140056
0.140057
0.140057
0.140058
0.140059
0.140059
0.14006
0.14006
0.140061
0.140061
0.140061
0.140062
0.140062
0.140062
0.140062
0.140063
0.140063
0.140063
0.140063
0.140062
0.140062
0.140062
0.140061
0.14006
0.140058
0.140056
0.140054
0.140052
0.140048
0.140045
0.140042
0.140038
0.140034
0.140029
0.140024
0.140019
0.140013
0.140007
0.14
0.139992
0.139983
0.139973
0.139962
0.139949
0.139935
0.139919
0.139901
0.13988
0.139855
0.139825
0.13979
0.139747
0.139693
0.139623
0.139531
0.139405
0.139221
0.138935
0.138405
0.13757
0.132301
0.146969
0.140002
0.140006
0.140009
0.140013
0.140016
0.140019
0.140022
0.140025