/*--------------------------------*- C++ -*----------------------------------*\
  =========                 |
  \\      /  F ield         | OpenFOAM: The Open Source CFD Toolbox
   \\    /   O peration     | Website:  https://openfoam.org
    \\  /    A nd           | Version:  11
     \\/     M anipulation  |
\*---------------------------------------------------------------------------*/
FoamFile
{
    format      ascii;
    class       volScalarField;
    location    "350";
    object      p;
}
// * * * * * * * * * * * * * * * * * * * * * * * * * * * * * * * * * * * * * //

dimensions      [0 2 -2 0 0 0 0];

internalField   nonuniform List<scalar> 
31595
(
0.196454
0.105412
0.157667
0.150393
0.174894
0.178201
0.197312
0.206131
0.222006
0.233662
0.248435
0.261529
0.276073
0.29005
0.304746
0.319341
0.334337
0.349404
0.364722
0.380151
0.395738
0.411413
0.427168
0.442953
0.458737
0.474473
0.490118
0.505626
0.52095
0.536041
0.550854
0.565346
0.579476
0.59321
0.60652
0.619387
0.631802
0.643766
0.655293
0.666413
0.677169
0.687621
0.697844
0.707932
0.717993
0.728152
0.738553
0.749352
0.760721
0.772846
0.785924
0.800166
0.81579
0.833027
0.852113
0.873292
0.896814
0.922933
0.951906
0.983991
1.01945
1.05854
1.1015
1.1486
1.20005
1.25607
1.31685
1.38254
1.45325
1.52901
1.60977
1.69537
1.78544
1.87953
1.97649
2.07573
2.1738
2.27178
2.35744
2.44419
2.48409
2.54994
2.45754
2.50764
2.06824
2.12686
0.8957
0.899533
-2.16729
0.157696
0.126354
0.141634
0.15643
0.170007
0.180585
0.194578
0.206701
0.220103
0.233006
0.246594
0.260076
0.273988
0.287998
0.302318
0.316812
0.331557
0.346492
0.361638
0.376957
0.392444
0.408067
0.423805
0.439627
0.455502
0.471398
0.48728
0.50311
0.518853
0.534475
0.549942
0.565224
0.580292
0.595128
0.609716
0.624052
0.638139
0.651992
0.665634
0.679108
0.692467
0.705779
0.719129
0.732616
0.746355
0.760478
0.775131
0.790477
0.806691
0.823963
0.842496
0.862506
0.884217
0.907868
0.933704
0.961979
0.992955
1.0269
1.06409
1.10481
1.14933
1.19793
1.25091
1.30854
1.37108
1.4388
1.51192
1.59066
1.67518
1.76558
1.86189
1.96403
2.07172
2.18459
2.30166
2.4223
2.54347
2.66575
2.77814
2.89195
2.96258
3.0579
2.99762
3.08233
2.65928
2.77476
1.50092
1.59066
-1.50738
0.143531
0.132204
0.137548
0.156543
0.168865
0.180587
0.193361
0.206049
0.218769
0.231716
0.244874
0.258241
0.271838
0.285673
0.299748
0.314063
0.328615
0.343399
0.358404
0.373619
0.38903
0.404618
0.420365
0.436249
0.452244
0.468327
0.484473
0.500655
0.516847
0.533026
0.54917
0.56526
0.581284
0.597231
0.613102
0.628903
0.644649
0.660366
0.676092
0.691878
0.707786
0.723895
0.740296
0.757096
0.774417
0.792397
0.811187
0.830955
0.851882
0.874163
0.898008
0.923638
0.951285
0.981197
1.01363
1.04884
1.08712
1.12875
1.17401
1.22321
1.27665
1.33465
1.39752
1.46558
1.53912
1.61846
1.70388
1.79565
1.894
1.9991
2.11108
2.22993
2.3555
2.48751
2.62516
2.76785
2.91296
3.06059
3.20117
3.34361
3.44792
3.57414
3.55304
3.67102
3.28043
3.44485
2.14299
2.26963
-1.03352
0.141563
0.134806
0.137353
0.15574
0.168657
0.180052
0.192466
0.204974
0.217434
0.230112
0.243009
0.256128
0.269483
0.283091
0.296953
0.311074
0.325453
0.340086
0.354968
0.370092
0.385447
0.401021
0.4168
0.432768
0.448909
0.465207
0.481644
0.498203
0.514869
0.531627
0.548467
0.565383
0.582371
0.599434
0.616583
0.633838
0.651223
0.668775
0.686544
0.704589
0.722984
0.741813
0.761178
0.781192
0.801985
0.823701
0.846498
0.870549
0.896041
0.923176
0.952172
0.983255
1.01667
1.05267
1.09152
1.1335
1.17891
1.22804
1.28121
1.33873
1.40095
1.4682
1.54083
1.61918
1.70362
1.7945
1.89216
1.99692
2.1091
2.22895
2.35668
2.49242
2.63609
2.78757
2.94627
3.11163
3.28145
3.45553
3.6256
3.79844
3.93881
4.09819
4.12169
4.27349
3.92884
4.13786
2.81973
2.96484
-0.644663
0.142169
0.13801
0.138203
0.155423
0.168578
0.179584
0.191544
0.203769
0.215947
0.22832
0.240938
0.253793
0.266898
0.280272
0.293919
0.307847
0.322055
0.336545
0.351312
0.366355
0.381666
0.397238
0.413064
0.429134
0.445438
0.461967
0.478712
0.495664
0.512817
0.530165
0.54771
0.565454
0.583406
0.601579
0.619993
0.638678
0.657673
0.677023
0.696787
0.717034
0.737846
0.759318
0.781558
0.804688
0.828844
0.854178
0.880853
0.909051
0.938965
0.970805
1.0048
1.04117
1.08019
1.12211
1.16721
1.21579
1.26816
1.32462
1.38553
1.45122
1.52205
1.5984
1.68064
1.76918
1.8644
1.96672
2.07654
2.19426
2.32024
2.45487
2.59843
2.75117
2.91317
3.08443
3.26456
3.45314
3.64835
3.84983
4.05049
4.25531
4.43355
4.62838
4.70014
4.88723
4.59797
4.84771
3.52704
3.79427
0.155345
0.143879
0.141589
0.13971
0.155459
0.168559
0.179135
0.190564
0.202425
0.214283
0.226326
0.23864
0.251215
0.26406
0.277193
0.290623
0.304355
0.318394
0.332742
0.3474
0.362368
0.377643
0.393223
0.409106
0.425288
0.441765
0.458535
0.475596
0.492948
0.510593
0.528537
0.546786
0.565355
0.584261
0.603526
0.623184
0.643272
0.663838
0.68494
0.706644
0.729028
0.752183
0.776213
0.801233
0.827374
0.854779
0.883606
0.914028
0.946231
0.980419
1.01681
1.05563
1.09713
1.14157
1.18924
1.24041
1.2954
1.35454
1.41816
1.48663
1.5603
1.63957
1.72484
1.81653
1.91509
2.02094
2.13457
2.25643
2.387
2.52674
2.6761
2.83549
3.00528
3.18573
3.37698
3.57883
3.79105
4.01223
4.24193
4.47418
4.71252
4.93033
5.16318
5.28652
5.51189
5.28681
5.57488
4.27817
4.70565
0.999472
0.145594
0.145101
0.141531
0.15568
0.168503
0.178636
0.189482
0.200916
0.212418
0.224108
0.236098
0.248377
0.26095
0.273834
0.28704
0.300573
0.314441
0.328647
0.343197
0.358091
0.373334
0.388926
0.40487
0.421167
0.43782
0.454834
0.472213
0.489965
0.5081
0.526631
0.545575
0.564953
0.584794
0.605128
0.625998
0.647451
0.669543
0.69234
0.71592
0.740369
0.765786
0.792281
0.819981
0.849021
0.879553
0.911743
0.945771
0.981831
1.02013
1.06091
1.10438
1.15083
1.20052
1.25373
1.31078
1.37199
1.4377
1.50826
1.58406
1.66551
1.753
1.84698
1.94791
2.05627
2.17257
2.29729
2.43101
2.57425
2.72758
2.89153
3.06666
3.25344
3.45232
3.6636
3.88733
4.12348
4.37104
4.62967
4.89439
5.1677
5.42676
5.70054
5.87887
6.14723
5.99541
6.32448
5.08122
5.61274
1.56738
0.147039
0.148233
0.143417
0.155925
0.168315
0.177999
0.188243
0.199204
0.210319
0.22164
0.233285
0.245254
0.257545
0.270171
0.283145
0.296475
0.310168
0.32423
0.338669
0.353489
0.368697
0.3843
0.400303
0.416714
0.433542
0.450796
0.468487
0.486632
0.505246
0.524353
0.543973
0.56414
0.584888
0.606259
0.6283
0.65107
0.674634
0.699067
0.724452
0.750886
0.778476
0.80734
0.837612
0.869434
0.902968
0.938385
0.975873
1.01564
1.05789
1.10288
1.15084
1.20204
1.25677
1.31534
1.37806
1.44527
1.51732
1.59461
1.67753
1.76651
1.862
1.96445
2.07438
2.19232
2.3188
2.4544
2.59974
2.75545
2.92215
3.10052
3.2912
3.49485
3.71205
3.94334
4.189
4.44925
4.7235
5.01157
5.30949
5.61904
5.92081
6.23816
6.47454
6.79049
6.7201
7.09422
5.93577
6.53073
2.06574
0.148032
0.150771
0.145148
0.156057
0.167899
0.177141
0.186787
0.197244
0.20795
0.218889
0.230176
0.241824
0.253822
0.266182
0.278918
0.292038
0.30555
0.319463
0.333786
0.348528
0.363698
0.379307
0.395365
0.411884
0.428879
0.446364
0.464358
0.482883
0.50196
0.521621
0.541896
0.562823
0.584444
0.606811
0.629982
0.654018
0.678995
0.704996
0.732112
0.760449
0.79012
0.821253
0.853986
0.888473
0.92488
0.963389
1.00419
1.04751
1.09355
1.14258
1.19485
1.25063
1.31022
1.37394
1.44213
1.51513
1.59333
1.67712
1.76694
1.86324
1.96649
2.0772
2.19591
2.32319
2.45965
2.60591
2.76267
2.93063
3.11052
3.30313
3.50924
3.72964
3.96511
4.21637
4.48401
4.7685
5.06969
5.38765
5.71936
6.06616
6.41179
6.77482
7.07145
7.43844
7.45523
7.87574
6.82171
7.47158
3.11492
0.148511
0.152605
0.146558
0.155965
0.167177
0.175984
0.185052
0.19499
0.205273
0.215821
0.226742
0.238057
0.249753
0.261839
0.274329
0.287231
0.300555
0.314311
0.328512
0.343168
0.358292
0.373898
0.390001
0.406617
0.423767
0.441469
0.459748
0.478632
0.498151
0.51834
0.539238
0.56089
0.583346
0.606664
0.630909
0.656154
0.682479
0.709975
0.738743
0.768892
0.800547
0.833842
0.868922
0.90595
0.945099
0.986557
1.03053
1.07723
1.12691
1.1798
1.23619
1.29635
1.36061
1.42928
1.50272
1.5813
1.66542
1.75549
1.85198
1.95535
2.06612
2.18484
2.31207
2.44844
2.59462
2.75129
2.91921
3.09917
3.29202
3.49863
3.71992
3.95686
4.21042
4.48153
4.77106
5.0798
5.40802
5.75616
6.1221
6.50699
6.89753
7.30829
7.6674
8.08969
8.19963
8.67106
7.73693
8.4471
4.2675
0.148442
0.153667
0.147521
0.155556
0.166082
0.174463
0.182982
0.192399
0.202249
0.2124
0.222949
0.233923
0.24531
0.257114
0.269348
0.282023
0.295151
0.308741
0.322809
0.337368
0.352434
0.368023
0.384156
0.400854
0.418139
0.436038
0.45458
0.473798
0.493728
0.514411
0.535894
0.558227
0.581471
0.605687
0.630948
0.657333
0.684931
0.713841
0.744169
0.776034
0.809566
0.844907
0.88221
0.921644
0.963391
1.00765
1.05462
1.10455
1.15766
1.21423
1.27454
1.33888
1.40758
1.48097
1.55943
1.64333
1.73311
1.8292
1.93207
2.04223
2.16022
2.28662
2.42206
2.5672
2.72273
2.88945
3.06817
3.25975
3.46514
3.68534
3.92142
4.17451
4.44574
4.73632
5.04738
5.38005
5.73506
6.11327
6.51348
6.93693
7.37301
7.83333
8.25693
8.73951
8.9488
9.481
8.68948
9.45349
5.09018
0.147815
0.153929
0.147948
0.154754
0.164561
0.172524
0.180526
0.189429
0.198842
0.208596
0.21877
0.229396
0.240466
0.251979
0.26395
0.27639
0.289309
0.302721
0.316644
0.331092
0.346084
0.361642
0.377787
0.394545
0.411944
0.430014
0.448791
0.468311
0.488618
0.509757
0.531781
0.554749
0.578725
0.603778
0.629989
0.657443
0.686235
0.716471
0.748265
0.781743
0.81704
0.854307
0.893705
0.935408
0.979605
1.0265
1.07631
1.12928
1.18566
1.24571
1.30973
1.37803
1.45094
1.52882
1.61205
1.70103
1.79619
1.89801
2.00698
2.12363
2.24853
2.3823
2.5256
2.67915
2.84369
3.02007
3.20918
3.41198
3.6295
3.86286
4.11328
4.38205
4.6705
4.98007
5.31221
5.66839
6.04982
6.45783
6.89213
7.35425
7.83615
8.34726
8.83672
9.38331
9.69684
10.2972
9.67481
10.4844
5.95416
0.146633
0.153385
0.14777
0.1535
0.162573
0.170123
0.177643
0.186046
0.195021
0.20438
0.214178
0.224453
0.235199
0.246415
0.258113
0.270306
0.283007
0.296229
0.309991
0.324313
0.339215
0.354722
0.370858
0.387655
0.405141
0.423355
0.442335
0.462124
0.48277
0.504322
0.526844
0.550395
0.575046
0.600875
0.627968
0.656416
0.686322
0.717797
0.750962
0.78595
0.822903
0.861978
0.903343
0.947181
0.993687
1.04307
1.09557
1.15141
1.21087
1.27422
1.34176
1.41382
1.49075
1.5729
1.66067
1.75449
1.85481
1.96212
2.07693
2.1998
2.33135
2.47222
2.6231
2.78476
2.95801
3.14376
3.34296
3.55665
3.78599
4.0322
4.29662
4.58073
4.88608
5.21433
5.56725
5.94665
6.35425
6.79186
7.26012
7.76099
8.28884
8.85144
9.40736
10.02
10.4404
11.1104
10.6707
11.5248
7.54024
0.144899
0.152042
0.146943
0.151747
0.160084
0.167225
0.174295
0.182216
0.190757
0.199721
0.209144
0.219066
0.229482
0.240393
0.251808
0.263742
0.27621
0.289228
0.302814
0.316991
0.331781
0.347213
0.363315
0.380122
0.397666
0.41599
0.435136
0.455152
0.476091
0.498009
0.520972
0.545047
0.57031
0.596846
0.624744
0.654104
0.685035
0.717652
0.752084
0.78847
0.826959
0.867714
0.91091
0.956737
1.0054
1.05711
1.11211
1.17065
1.23299
1.29944
1.3703
1.4459
1.5266
1.61278
1.70485
1.80325
1.90844
2.02095
2.1413
2.27009
2.40796
2.55557
2.71368
2.88309
3.06466
3.25936
3.46822
3.69236
3.93305
4.19161
4.46953
4.76845
5.09013
5.43649
5.80958
6.21162
6.6448
7.1115
7.61326
8.15263
8.72631
9.34113
9.96431
10.6465
11.1778
11.9275
11.6858
12.6004
8.8521
0.142618
0.149916
0.145435
0.149459
0.157069
0.163803
0.170453
0.177912
0.186026
0.194598
0.203647
0.213211
0.223292
0.233889
0.245011
0.256674
0.268895
0.281689
0.295079
0.309089
0.323744
0.339076
0.355116
0.371901
0.389468
0.407864
0.427136
0.447334
0.468517
0.490744
0.514089
0.538624
0.564431
0.591596
0.620218
0.650401
0.682259
0.715915
0.751503
0.789167
0.829065
0.871363
0.916245
0.963904
1.01455
1.06842
1.12574
1.18677
1.2518
1.32113
1.39507
1.47397
1.55819
1.64813
1.74422
1.8469
1.95667
2.07405
2.1996
2.33395
2.47774
2.6317
2.79661
2.97332
3.16274
3.36588
3.58386
3.81788
4.06929
4.33954
4.63025
4.94322
5.28042
5.64401
6.03636
6.46004
6.91776
7.41245
7.94657
8.52342
9.14186
9.80845
10.4983
11.252
11.8954
12.7339
12.7061
13.6942
10.0515
0.139797
0.147032
0.143228
0.146607
0.153513
0.159841
0.166096
0.173114
0.180808
0.188992
0.197668
0.206873
0.216613
0.226887
0.237705
0.249084
0.26104
0.273594
0.286768
0.300587
0.315082
0.330286
0.346232
0.362961
0.380515
0.398942
0.418293
0.438625
0.46
0.482484
0.50615
0.531077
0.557355
0.585073
0.614335
0.645251
0.67794
0.712532
0.749165
0.78799
0.82917
0.872878
0.919302
0.968646
1.02112
1.07697
1.13643
1.19978
1.26731
1.33931
1.41612
1.49809
1.5856
1.67906
1.77891
1.8856
1.99966
2.12162
2.25207
2.39166
2.54105
2.70102
2.87237
3.05598
3.25285
3.46402
3.69067
3.93409
4.19573
4.47715
4.78009
5.10653
5.45861
5.83876
6.24963
6.69419
7.17561
7.69742
8.26297
8.87637
9.53855
10.2562
11.0116
11.8373
12.5927
13.5225
13.7191
14.7814
11.6306
0.13644
0.143417
0.140312
0.14317
0.149401
0.155325
0.161208
0.167804
0.175087
0.182886
0.19119
0.200034
0.209426
0.219367
0.229869
0.240949
0.252624
0.264917
0.277852
0.291457
0.305763
0.320807
0.336625
0.353262
0.370761
0.389175
0.408559
0.428972
0.450483
0.473161
0.497083
0.522333
0.549004
0.577193
0.607008
0.638562
0.671981
0.7074
0.744963
0.784826
0.827157
0.872137
0.919959
0.97083
1.02498
1.08263
1.14406
1.20953
1.27934
1.35381
1.43327
1.51809
1.60865
1.70538
1.80872
1.91916
2.03722
2.16347
2.2985
2.443
2.59766
2.76327
2.94068
3.13081
3.3347
3.55346
3.78833
4.04066
4.312
4.60402
4.91861
5.25786
5.62415
6.02011
6.44871
6.91327
7.41746
7.9654
8.5613
9.21015
9.91486
10.6826
11.5024
12.4005
13.2672
14.2929
14.7203
15.8652
13.2903
0.132548
0.139103
0.136687
0.139135
0.144726
0.150248
0.155776
0.161971
0.168851
0.176267
0.184199
0.192677
0.201714
0.211313
0.221486
0.232249
0.243624
0.255633
0.268304
0.281665
0.295752
0.310601
0.326254
0.342757
0.360157
0.37851
0.397873
0.418313
0.439897
0.462701
0.486807
0.512304
0.539286
0.567856
0.598125
0.630217
0.664257
0.700387
0.738756
0.779525
0.822867
0.868968
0.918028
0.970261
1.0259
1.08518
1.14837
1.21576
1.28764
1.36434
1.4462
1.53361
1.62695
1.72666
1.8332
1.94707
2.06881
2.19899
2.33824
2.48725
2.64676
2.81757
3.00057
3.19673
3.40711
3.63288
3.87535
4.13594
4.41628
4.71813
5.04351
5.39466
5.77414
6.18482
6.62994
7.11317
7.63867
8.21111
8.83557
9.51795
10.263
11.0789
11.9605
12.9302
13.9059
15.0334
15.6959
16.9433
14.7523
0.128124
0.134121
0.13236
0.134493
0.139486
0.144609
0.149795
0.155607
0.162092
0.169128
0.176687
0.184796
0.193471
0.202716
0.212544
0.222974
0.234027
0.245729
0.258109
0.271198
0.285032
0.299651
0.315099
0.331424
0.348679
0.36692
0.38621
0.406615
0.42821
0.451073
0.475289
0.500952
0.52816
0.557021
0.587653
0.620178
0.654729
0.691452
0.730502
0.772045
0.816259
0.863335
0.913477
0.966907
1.02386
1.08458
1.14935
1.21845
1.29218
1.37089
1.45493
1.54468
1.64054
1.74297
1.85243
1.96943
2.09452
2.2283
2.37143
2.5246
2.68857
2.86418
3.05234
3.25406
3.47045
3.70272
3.95223
4.22049
4.50917
4.82016
5.15558
5.51782
5.90961
6.33401
6.79454
7.29523
7.84065
8.43607
9.08732
9.80126
10.5844
11.4459
12.3862
13.425
14.5049
15.7342
16.6295
17.9853
16.3955
0.123165
0.128505
0.127343
0.129241
0.133681
0.138409
0.143266
0.148709
0.154808
0.161464
0.168648
0.176384
0.184687
0.193566
0.203034
0.213111
0.223822
0.235192
0.247252
0.260037
0.273583
0.287934
0.303136
0.319239
0.336298
0.354374
0.373532
0.393842
0.415382
0.438233
0.462484
0.488232
0.51558
0.544639
0.575531
0.608385
0.643337
0.680537
0.720144
0.762329
0.807275
0.855178
0.906248
0.96071
1.01881
1.08079
1.14694
1.21755
1.29294
1.37345
1.45943
1.55129
1.64943
1.75431
1.86641
1.98626
2.11442
2.2515
2.39818
2.55516
2.72324
2.90328
3.09622
3.3031
3.52506
3.76337
4.01943
4.29482
4.59128
4.91081
5.25562
5.62824
6.03153
6.46879
6.9438
7.46087
8.02502
8.64205
9.31855
10.0623
10.8814
11.7863
12.7822
13.8876
15.0668
16.3971
17.5181
18.9856
18.1232
0.117671
0.12229
0.121655
0.123382
0.127316
0.131657
0.136191
0.141278
0.146997
0.153273
0.16008
0.167435
0.175356
0.183854
0.192945
0.202649
0.212992
0.224002
0.235712
0.248158
0.261379
0.275419
0.29033
0.306161
0.322972
0.340826
0.359789
0.379937
0.401349
0.424111
0.448315
0.474059
0.501455
0.530614
0.561659
0.594727
0.62996
0.667509
0.707537
0.750221
0.795746
0.844316
0.896144
0.951461
1.01051
1.07356
1.14088
1.21279
1.2896
1.37165
1.45933
1.55302
1.65315
1.76018
1.87462
1.99698
2.12786
2.26787
2.4177
2.57808
2.74983
2.93383
3.13104
3.34254
3.56949
3.81322
4.07516
4.35696
4.66043
4.98763
5.34089
5.72284
6.13651
6.58537
7.07341
7.60528
8.18636
8.82294
9.52233
10.2932
11.145
12.0899
13.137
14.305
15.5767
17.0078
18.3436
19.9394
19.629
0.111638
0.11551
0.11532
0.116924
0.1204
0.124362
0.128579
0.13332
0.138665
0.144561
0.150984
0.157951
0.165478
0.173581
0.182275
0.191585
0.201535
0.212157
0.223484
0.235556
0.248412
0.2621
0.276672
0.292182
0.30869
0.326262
0.34497
0.364888
0.386099
0.408695
0.432767
0.458421
0.485768
0.514927
0.546024
0.579195
0.614587
0.652356
0.692672
0.735712
0.781669
0.830748
0.883168
0.939165
0.998988
1.06291
1.13121
1.20419
1.2822
1.36557
1.45469
1.54996
1.65181
1.76072
1.87719
2.00177
2.13503
2.27763
2.43026
2.59367
2.76868
2.9562
3.15724
3.37287
3.6043
3.85289
4.12013
4.4077
4.71748
5.0516
5.41248
5.80286
6.2259
6.68523
7.18506
7.73029
8.32666
8.98091
9.70097
10.4963
11.3778
12.3588
13.4522
14.6776
16.033
17.5588
19.0904
20.8169
21.1646
0.105068
0.108199
0.108367
0.109881
0.112944
0.116539
0.120443
0.124844
0.129818
0.135332
0.141366
0.147935
0.155056
0.162746
0.171025
0.179915
0.189446
0.199649
0.21056
0.22222
0.234671
0.247962
0.262146
0.277283
0.293431
0.310661
0.329046
0.348665
0.369602
0.39195
0.415809
0.441282
0.468486
0.49754
0.528578
0.561737
0.597167
0.635031
0.675499
0.718755
0.764994
0.814425
0.867274
0.923778
0.984193
1.04879
1.11787
1.19173
1.27071
1.35518
1.44551
1.54211
1.64544
1.75595
1.87418
2.00067
2.13602
2.28088
2.43597
2.60205
2.77996
2.97063
3.17507
3.3944
3.62986
3.88282
4.15484
4.44762
4.7631
5.10349
5.47126
5.86928
6.30081
6.76963
7.28014
7.83748
8.44768
9.11792
9.85668
10.6742
11.5824
12.596
13.7311
15.0086
16.4388
18.053
19.7591
21.6155
22.5881
0.0979598
0.100392
0.100828
0.102271
0.104965
0.108206
0.111797
0.115863
0.120469
0.125596
0.131233
0.137392
0.144092
0.151351
0.159191
0.167637
0.176719
0.186471
0.196929
0.208136
0.220137
0.232983
0.246729
0.261435
0.277165
0.293988
0.31198
0.331224
0.351807
0.373823
0.397374
0.422569
0.449524
0.478366
0.509228
0.542251
0.577588
0.615409
0.655883
0.699199
0.745556
0.795168
0.848262
0.905082
0.965888
1.03096
1.10058
1.17509
1.2548
1.3401
1.43136
1.52901
1.6335
1.7453
1.86494
1.99299
2.13005
2.27678
2.4339
2.60219
2.78252
2.97582
3.18311
3.40555
3.6444
3.90105
4.17708
4.47426
4.79457
5.14024
5.51383
5.9183
6.35699
6.83381
7.35331
7.92084
8.5427
9.2264
9.9809
10.817
11.7478
12.7892
13.9596
15.2821
16.7766
18.4707
20.3272
22.3167
23.7599
0.0903212
0.0921257
0.0927416
0.0941185
0.0964847
0.0993851
0.102664
0.106396
0.110632
0.115369
0.120599
0.126335
0.132597
0.139406
0.146785
0.15476
0.163363
0.172629
0.182597
0.193312
0.20482
0.217173
0.230427
0.244646
0.259895
0.276245
0.293776
0.312572
0.332721
0.354321
0.377476
0.402296
0.428904
0.457424
0.487999
0.520768
0.555888
0.593531
0.63387
0.677098
0.72342
0.77305
0.826221
0.883178
0.944187
1.00953
1.0795
1.15443
1.23466
1.32056
1.41252
1.51096
1.61634
1.72916
1.84993
1.97924
2.11769
2.26595
2.42477
2.59492
2.77728
2.9728
3.18253
3.40764
3.64939
3.90923
4.18875
4.48975
4.81424
5.16452
5.5432
5.95329
6.39824
6.88205
7.40943
7.98587
8.6179
9.31333
10.0815
10.9338
11.8841
12.9494
14.15
15.5111
17.0594
18.8224
20.8012
22.9124
24.799
0.0821636
0.0834335
0.0841496
0.0854545
0.0875266
0.0901012
0.0930667
0.0964627
0.100327
0.104665
0.109477
0.114776
0.120583
0.12692
0.133812
0.141287
0.14938
0.158125
0.167565
0.177743
0.18871
0.20052
0.213229
0.226902
0.241607
0.257418
0.274415
0.292684
0.312316
0.333413
0.356078
0.380427
0.406583
0.434673
0.464838
0.497228
0.532002
0.569329
0.609392
0.652384
0.698512
0.747994
0.801068
0.857982
0.919005
0.984421
1.05454
1.12968
1.21019
1.29645
1.38886
1.48784
1.59386
1.70741
1.82903
1.95929
2.09881
2.24829
2.40845
2.5801
2.76411
2.96146
3.17321
3.40053
3.64472
3.90724
4.1897
4.49393
4.82198
5.17618
5.55919
5.97407
6.42437
6.91414
7.44818
8.03216
8.67276
9.37801
10.1576
11.0233
11.9895
13.0741
14.299
15.6908
17.2812
19.0996
21.1704
23.3852
25.5631
0.0735075
0.0743524
0.0750978
0.0763151
0.0781205
0.0803829
0.083033
0.0860879
0.0895753
0.0935055
0.0978857
0.102731
0.108062
0.113903
0.120281
0.127226
0.134773
0.142961
0.15183
0.161428
0.171805
0.183016
0.195122
0.208187
0.222281
0.237481
0.253867
0.271528
0.290557
0.311055
0.333131
0.356901
0.38249
0.410031
0.439663
0.47154
0.505823
0.542687
0.582313
0.624899
0.670655
0.719802
0.772581
0.829243
0.89006
0.955321
1.02533
1.10043
1.18096
1.2673
1.35985
1.45905
1.56537
1.67929
1.80137
1.93219
2.07236
2.22259
2.38361
2.55623
2.74134
2.93992
3.15304
3.38188
3.62774
3.89211
4.17661
4.48307
4.81358
5.1705
5.55651
5.97469
6.42863
6.92243
7.46098
8.04999
8.69628
9.408
10.195
11.0694
12.0459
13.1429
14.3832
15.7947
17.4121
19.2677
21.3996
23.7
26.0256
0.0643832
0.0649196
0.065635
0.066743
0.0683017
0.070264
0.0725952
0.075302
0.0784041
0.0819157
0.0858494
0.0902221
0.095056
0.100377
0.106213
0.112597
0.119565
0.127156
0.135413
0.144385
0.154123
0.164684
0.17613
0.188526
0.201943
0.216461
0.232161
0.249134
0.267475
0.287286
0.308678
0.331768
0.356686
0.383563
0.412546
0.443785
0.477449
0.51371
0.552755
0.594785
0.640011
0.688659
0.740971
0.797202
0.857627
0.922539
0.992248
1.06709
1.14741
1.23361
1.32607
1.42525
1.53161
1.64565
1.76793
1.89901
2.03955
2.19023
2.3518
2.52507
2.71095
2.91041
3.12452
3.35449
3.60164
3.86744
4.15354
4.46177
4.79424
5.15335
5.54176
5.96261
6.4195
6.9166
7.45882
8.05192
8.7028
9.41969
10.2126
11.0937
12.078
13.1842
14.4355
15.8605
17.4949
19.3732
21.5368
23.8886
26.2257
0.0548332
0.0551728
0.0558116
0.0567842
0.0581085
0.0597791
0.0617863
0.064135
0.0668408
0.0699203
0.0733902
0.0772698
0.0815831
0.0863571
0.091622
0.0974115
0.103763
0.110717
0.118319
0.126617
0.135664
0.14552
0.156245
0.167908
0.180582
0.194345
0.209281
0.225482
0.243045
0.262075
0.282684
0.30499
0.329122
0.355219
0.383424
0.413897
0.446801
0.482316
0.520627
0.561942
0.606472
0.654445
0.706108
0.761718
0.821552
0.885907
0.955095
1.02946
1.10935
1.19515
1.28728
1.38617
1.4923
1.60618
1.72835
1.85941
1.99999
2.15079
2.31256
2.48613
2.67239
2.87232
3.08703
3.3177
3.56566
3.8324
4.11956
4.42902
4.76287
5.12349
5.51362
5.93638
6.39538
6.89481
7.43961
8.03557
8.68959
9.40996
10.2067
11.092
12.081
13.1923
14.4492
15.8801
17.5202
19.4042
21.5683
23.9172
26.2158
0.0449168
0.0451517
0.0456801
0.0464919
0.0475857
0.0489683
0.0506443
0.0526222
0.054918
0.0575496
0.0605364
0.0639005
0.0676675
0.071866
0.0765276
0.0816876
0.0873844
0.0936598
0.10056
0.108135
0.116439
0.125531
0.135474
0.146336
0.158194
0.171125
0.185215
0.200557
0.217249
0.235397
0.255115
0.276524
0.299754
0.324942
0.352238
0.381798
0.413795
0.448402
0.485816
0.526237
0.569883
0.616986
0.667791
0.72256
0.781573
0.845128
0.91354
0.987149
1.06632
1.15143
1.2429
1.34117
1.44672
1.56005
1.68172
1.81232
1.95249
2.10292
2.26438
2.43768
2.62373
2.8235
3.0381
3.26871
3.51667
3.78345
4.0707
4.38029
4.71433
5.07516
5.46552
5.88854
6.34779
6.84743
7.39238
7.98841
8.64237
9.36247
10.1586
11.0429
12.0301
13.1387
14.3911
15.8152
17.444
19.3102
21.4382
23.7336
25.9625
0.0347077
0.0348963
0.0352925
0.035923
0.0367837
0.0378755
0.03921
0.0408033
0.0426729
0.0448381
0.0473209
0.0501458
0.0533401
0.0569336
0.0609597
0.0654546
0.0704579
0.0760128
0.0821664
0.0889689
0.0964757
0.104747
0.113847
0.123845
0.134816
0.14684
0.160005
0.174403
0.190134
0.207306
0.226033
0.246437
0.26865
0.292814
0.319075
0.347593
0.378541
0.412099
0.448459
0.487829
0.530426
0.576484
0.626251
0.679991
0.737987
0.800538
0.867962
0.940601
1.01882
1.103
1.19357
1.29097
1.39566
1.50818
1.62907
1.75891
1.89837
2.04813
2.20894
2.38164
2.56712
2.76636
2.98046
3.21061
3.45813
3.72451
4.01137
4.32058
4.65423
5.01468
5.40462
5.82715
6.28583
6.7848
7.32891
7.92384
8.57635
9.29452
10.0881
10.9688
11.9511
13.0527
14.2951
15.7046
17.3098
19.1413
21.2008
23.4045
25.3991
0.0242898
0.0244458
0.0246977
0.0251348
0.0257537
0.0265446
0.027524
0.0287157
0.0301402
0.0318184
0.0337738
0.0360332
0.0386258
0.041583
0.0449392
0.0487318
0.0530012
0.0577914
0.0631502
0.0691295
0.075785
0.0831759
0.0913683
0.100433
0.110445
0.121485
0.133641
0.147006
0.161684
0.17778
0.19541
0.214698
0.235777
0.258788
0.283882
0.31122
0.340972
0.373326
0.408474
0.446623
0.487993
0.532822
0.581358
0.633868
0.690636
0.751963
0.818171
0.889603
0.966625
1.04963
1.13903
1.23527
1.33883
1.45024
1.57003
1.6988
1.83721
1.98594
2.14575
2.31747
2.50198
2.70029
2.91345
3.14268
3.38929
3.65475
3.94068
4.24895
4.5816
4.94101
5.32983
5.7511
6.20836
6.70572
7.24792
7.84057
8.49026
9.20491
9.99396
10.8688
11.8433
12.9344
14.1617
15.5501
17.1217
18.9056
20.8701
22.9667
24.6201
0.0137507
0.0138428
0.0139493
0.0141892
0.014552
0.0150244
0.015631
0.0164024
0.0173611
0.0185283
0.0199306
0.0215969
0.0235578
0.0258457
0.0284964
0.031548
0.0350418
0.0390225
0.0435385
0.0486415
0.0543882
0.0608396
0.0680607
0.0761218
0.085099
0.0950749
0.106137
0.11838
0.131905
0.14682
0.163244
0.1813
0.201121
0.222849
0.246638
0.272648
0.301054
0.33204
0.3658
0.402547
0.4425
0.485898
0.532992
0.58405
0.639358
0.699217
0.763951
0.833905
0.909445
0.990965
1.07888
1.17364
1.27572
1.38564
1.50395
1.63124
1.76816
1.91539
2.0737
2.24391
2.4269
2.62365
2.83524
3.06285
3.30778
3.57149
3.85561
4.16194
4.49252
4.84968
5.23603
5.65458
6.10879
6.60266
7.14083
7.72874
8.37281
9.08068
9.86141
10.7259
11.6871
12.761
13.965
15.3221
16.8462
18.5682
20.41
22.3949
23.5927
0.00317268
0.00313329
0.00310598
0.00314982
0.00323459
0.00336401
0.00357764
0.00390832
0.00437717
0.0050081
0.00583031
0.00687426
0.00817177
0.0097568
0.0116656
0.0139369
0.0166131
0.0197392
0.0233635
0.0275387
0.0323213
0.0377716
0.0439558
0.0509452
0.0588153
0.0676482
0.0775326
0.0885631
0.100842
0.114477
0.129586
0.146295
0.164737
0.185058
0.207408
0.231949
0.25886
0.288323
0.320537
0.355712
0.394071
0.435853
0.481311
0.530714
0.584349
0.642523
0.705556
0.773796
0.84761
0.927392
1.01356
1.10656
1.20687
1.31501
1.43153
1.55701
1.69211
1.83751
1.99396
2.16228
2.34335
2.53813
2.7477
2.97322
3.21599
3.47744
3.75917
4.06296
4.39081
4.74501
5.12812
5.54308
5.99326
6.48254
7.01543
7.59718
8.23397
8.93308
9.70312
10.5543
11.4987
12.5509
13.7257
15.0442
16.5096
18.1586
19.8511
21.7144
22.3553
-0.00737051
-0.007634
-0.00777036
-0.00792005
-0.00814307
-0.00838618
-0.00858839
-0.0087219
-0.0087687
-0.00870229
-0.00848984
-0.00809897
-0.00749714
-0.00665028
-0.00552098
-0.00407009
-0.00225465
-2.98671e-05
0.00265276
0.00584633
0.00960715
0.0139955
0.0190779
0.0249242
0.0316112
0.0392203
0.0478406
0.0575667
0.0684996
0.0807499
0.0944369
0.109683
0.126622
0.1454
0.166173
0.189102
0.214362
0.24214
0.272634
0.306058
0.342635
0.382604
0.426222
0.473756
0.525495
0.581748
0.642836
0.709109
0.780933
0.8587
0.942832
1.03378
1.13201
1.23805
1.35244
1.47577
1.60868
1.75186
1.90605
2.07207
2.25077
2.44313
2.65019
2.87312
3.11318
3.37179
3.65051
3.9511
4.27552
4.62598
5.00502
5.41546
5.86059
6.34415
6.87049
7.44465
8.07251
8.76095
9.51804
10.3533
11.2775
12.3039
13.4442
14.7178
16.1144
17.6809
19.2002
20.9345
21.0654
-0.0178138
-0.0184072
-0.0186135
-0.0189558
-0.0195246
-0.020174
-0.0208172
-0.0214405
-0.0220317
-0.0225594
-0.0229868
-0.0232811
-0.0234093
-0.0233362
-0.0230247
-0.022434
-0.0215231
-0.0202464
-0.0185545
-0.0163955
-0.0137142
-0.0104494
-0.00653575
-0.00190293
0.00352471
0.00982887
0.0170979
0.0254267
0.0349165
0.0456778
0.0578261
0.0714886
0.086801
0.103907
0.122959
0.144121
0.167574
0.193501
0.222102
0.25359
0.288189
0.326143
0.367704
0.413145
0.462754
0.516838
0.575724
0.639757
0.709307
0.784766
0.866554
0.955116
1.05093
1.1545
1.26639
1.38717
1.51748
1.658
1.80946
1.97267
2.14848
2.33786
2.54182
2.76151
2.99817
3.25319
3.52809
3.8246
4.14463
4.49033
4.86411
5.26876
5.70741
6.18365
6.70165
7.26617
7.88275
8.55785
9.29887
10.1145
11.0143
12.01
13.1094
14.3314
15.6494
17.1275
18.4559
20.0709
19.5728
-0.0280993
-0.0291309
-0.029355
-0.0298947
-0.0308555
-0.0319483
-0.0330586
-0.0341997
-0.0353662
-0.0365193
-0.0376184
-0.0386305
-0.0395231
-0.0402607
-0.0408051
-0.0411161
-0.0411528
-0.0408703
-0.0402186
-0.0391486
-0.0376038
-0.0355233
-0.0328438
-0.0294949
-0.0254017
-0.0204835
-0.0146508
-0.00781202
0.000136348
0.00930233
0.0198044
0.0317667
0.0453248
0.0606218
0.0778164
0.0970704
0.118558
0.142471
0.169005
0.198377
0.230813
0.266553
0.305854
0.348987
0.396242
0.447927
0.504367
0.565909
0.632924
0.705803
0.784963
0.870851
0.96394
1.06474
1.17379
1.29168
1.41903
1.55652
1.70487
1.86487
2.03738
2.22332
2.42371
2.63967
2.87241
3.12328
3.39378
3.68557
4.00052
4.34068
4.70841
5.10637
5.53756
6.00539
6.51379
7.06727
7.67098
8.33087
9.05366
9.84721
10.7194
11.6809
12.7349
13.9006
15.1326
16.5183
17.6422
19.1411
18.0053
-0.038177
-0.0397478
-0.0399258
-0.0406756
-0.042083
-0.0436575
-0.0452631
-0.0469523
-0.0487269
-0.0505383
-0.0523419
-0.0541063
-0.0557984
-0.0573833
-0.0588223
-0.0600765
-0.0611046
-0.0618625
-0.0623025
-0.0623737
-0.0620229
-0.0611889
-0.0598092
-0.0578161
-0.0551338
-0.0516823
-0.0473753
-0.042119
-0.035812
-0.0283478
-0.0196075
-0.00946601
0.0022107
0.0155669
0.0307573
0.0479466
0.0673109
0.0890403
0.113333
0.140403
0.170479
0.203801
0.240626
0.281228
0.325895
0.374937
0.428678
0.487467
0.551671
0.621683
0.697919
0.780822
0.870866
0.968553
1.07443
1.18906
1.31308
1.44714
1.59197
1.74834
1.91709
2.09913
2.29545
2.50715
2.73542
2.98156
3.24703
3.53344
3.84258
4.17644
4.53727
4.92761
5.3503
5.8086
6.30616
6.84718
7.43641
8.07928
8.78173
9.5507
10.3925
11.3163
12.3206
13.4256
14.5645
15.8535
16.7625
18.145
16.5741
-0.048002
-0.0501961
-0.0502552
-0.0512392
-0.0531537
-0.0552492
-0.057379
-0.0596494
-0.0620671
-0.0645704
-0.067112
-0.0696622
-0.0721896
-0.0746589
-0.0770311
-0.0792692
-0.0813315
-0.0831752
-0.0847555
-0.0860214
-0.0869204
-0.0873934
-0.0873808
-0.0868129
-0.0856167
-0.0837136
-0.0810183
-0.0774398
-0.0728741
-0.067218
-0.060352
-0.0521525
-0.0424874