/*--------------------------------*- C++ -*----------------------------------*\
  =========                 |
  \\      /  F ield         | OpenFOAM: The Open Source CFD Toolbox
   \\    /   O peration     | Website:  https://openfoam.org
    \\  /    A nd           | Version:  11
     \\/     M anipulation  |
\*---------------------------------------------------------------------------*/
FoamFile
{
    format      ascii;
    class       volScalarField;
    location    "350";
    object      p;
}
// * * * * * * * * * * * * * * * * * * * * * * * * * * * * * * * * * * * * * //

dimensions      [0 2 -2 0 0 0 0];

internalField   nonuniform List<scalar> 
31595
(
12.5266
8.48032
9.34207
9.74048
10.3388
10.6424
11.2247
11.7127
12.2737
12.831
13.4281
14.0401
14.6815
15.3465
16.0395
16.7597
17.5092
18.2886
19.0993
19.9421
20.8183
21.7289
22.6751
23.6579
24.6783
25.7376
26.8368
27.977
29.1594
30.3851
31.6553
32.9713
34.3343
35.7459
37.2072
38.72
40.286
41.9069
43.5846
45.3212
47.119
48.9805
50.9083
52.9053
54.9747
57.1197
59.344
61.6515
64.0463
66.5329
69.1162
71.8011
74.5931
77.4982
80.5226
83.6728
86.9559
90.3798
93.9524
97.6824
101.579
105.653
109.914
114.375
119.047
123.944
129.08
134.472
140.135
146.089
152.353
158.948
165.898
173.226
180.959
189.126
197.754
206.873
216.513
226.7
237.452
248.78
260.668
273.062
285.853
298.754
311.475
322.678
332.711
10.4132
9.09285
8.82272
9.62903
10.1504
10.5504
11.0625
11.5846
12.121
12.6771
13.2585
13.8615
14.4889
15.1412
15.8199
16.5259
17.2602
18.0239
18.8182
19.6441
20.5029
21.3954
22.3229
23.2863
24.2869
25.3259
26.4042
27.523
28.6835
29.8871
31.1348
32.4281
33.7681
35.1565
36.5947
38.0844
39.6274
41.2254
42.8804
44.5947
46.3705
48.2105
50.1173
52.0939
54.1434
56.2692
58.4749
60.7647
63.1425
65.613
68.1809
70.8515
73.6303
76.5231
79.5362
82.6765
85.9511
89.3678
92.9347
96.6608
100.556
104.629
108.893
113.359
118.039
122.948
128.1
133.511
139.2
145.185
151.486
158.127
165.13
172.523
180.333
188.59
197.325
206.571
216.359
226.72
237.676
249.24
261.401
274.106
287.236
300.502
313.547
325.019
334.874
9.39364
9.0441
8.64265
9.42212
9.99209
10.4156
10.9056
11.4279
11.9552
12.5012
13.0698
13.6605
14.2741
14.9122
15.5759
16.2663
16.9844
17.7314
18.5083
19.3163
20.1564
21.0297
21.9374
22.8805
23.8601
24.8774
25.9336
27.0298
28.1673
29.3472
30.571
31.8399
33.1554
34.519
35.9323
37.397
38.9148
40.4876
42.1176
43.8071
45.5583
47.3739
49.2566
51.2094
53.2355
55.3384
57.5217
59.7894
62.1458
64.5954
67.143
69.794
72.5538
75.4284
78.4242
81.5479
84.807
88.2092
91.7629
95.4771
99.3615
103.426
107.683
112.144
116.823
121.732
126.888
132.307
138.008
144.01
150.335
157.006
164.048
171.489
179.359
187.688
196.513
205.866
215.784
226.3
237.441
249.226
261.646
274.652
288.12
301.761
315.145
326.937
336.607
8.97831
8.90712
8.53078
9.23312
9.83167
10.2626
10.7387
11.2514
11.7699
12.3034
12.8585
13.4352
14.034
14.6565
15.3041
15.9778
16.6786
17.4077
18.1661
18.955
19.7754
20.6284
21.5151
22.4366
23.394
24.3885
25.4214
26.4937
27.6068
28.7619
29.9603
31.2035
32.4929
33.8301
35.2168
36.6546
38.1455
39.6913
41.2943
42.9566
44.6809
46.4695
48.3255
50.2517
52.2514
54.3282
56.4857
58.7279
61.0591
63.4839
66.0072
68.6341
71.3704
74.222
77.1953
80.2972
83.5351
86.9169
90.451
94.1467
98.0137
102.063
106.305
110.753
115.42
120.32
125.47
130.887
136.588
142.596
148.931
155.618
162.684
170.157
178.069
186.454
195.347
204.787
214.812
225.461
236.765
248.747
261.403
274.693
288.486
302.503
316.234
328.382
337.874
8.73059
8.8032
8.43908
9.06964
9.67043
10.1018
10.5617
11.0605
11.5671
12.0866
12.6267
13.1878
13.7706
14.3765
15.0068
15.6627
16.3451
17.0552
17.7941
18.5628
19.3623
20.1939
21.0585
21.9573
22.8915
23.8621
24.8704
25.9176
27.005
28.1338
29.3056
30.5216
31.7835
33.0928
34.4511
35.8603
37.3224
38.8393
40.4131
42.0461
43.741
45.5003
47.3268
49.2237
51.1942
53.2417
55.3701
57.5833
59.8857
62.2819
64.7767
67.3755
70.0838
72.9078
75.8538
78.9288
82.1403
85.4961
89.0049
92.676
96.5192
100.545
104.766
109.193
113.842
118.725
123.861
129.266
134.959
140.961
147.297
153.989
161.067
168.56
176.502
184.928
193.876
203.388
213.506
224.271
235.721
247.885
260.763
274.323
288.43
302.817
316.902
329.443
338.652
8.56719
8.7313
8.36334
8.92165
9.50874
9.93343
10.3742
10.8555
11.3474
11.8511
12.3744
12.9186
13.4841
14.0722
14.6841
15.321
15.984
16.6741
17.3923
18.1397
18.9173
19.7263
20.5678
21.4427
22.3523
23.2978
24.2803
25.3011
26.3615
27.4628
28.6064
29.7938
31.0266
32.3062
33.6346
35.0134
36.4447
37.9305
39.473
41.0745
42.7376
44.4649
46.2593
48.1239
50.0621
52.0772
54.1731
56.3538
58.6236
60.9871
63.4494
66.0156
68.6914
71.4828
74.3965
77.4393
80.6186
83.9426
87.4198
91.0596
94.872
98.868
103.059
107.458
112.079
116.937
122.049
127.431
133.105
139.091
145.414
152.099
159.175
166.673
174.628
183.077
192.061
201.625
211.813
222.672
234.244
246.563
259.638
273.442
287.843
302.584
317.025
330.002
338.768
8.42881
8.66454
8.29453
8.7805
9.34364
9.75661
10.1758
10.6366
11.1111
11.5973
12.1023
12.6282
13.1751
13.7441
14.3365
14.9534
15.5958
16.2648
16.9612
17.6863
18.441
19.2263
20.0434
20.8933
21.7772
22.6963
23.6517
24.6447
25.6767
26.7489
27.8629
29.0201
30.2219
31.4703
32.7667
34.1132
35.5117
36.9642
38.4729
40.0404
41.669
43.3616
45.1209
46.9502
48.8526
50.8317
52.8914
55.0356
57.2687
59.5951
62.0201
64.5488
67.1868
69.9403
72.8157
75.8201
78.9608
82.246
85.6843
89.2852
93.0586
97.0157
101.168
105.529
110.112
114.932
120.007
125.355
130.995
136.949
143.243
149.902
156.956
164.437
172.382
180.83
189.823
199.408
209.633
220.55
232.204
244.638
257.865
271.871
286.522
301.577
316.353
329.642
338.276
8.29577
8.58841
8.22381
8.63945
9.17151
9.56911
9.9653
10.4032
10.8582
11.3251
11.8106
12.3168
12.8439
13.3927
13.9645
14.5604
15.1812
15.828
16.5017
17.2033
17.9338
18.6943
19.4859
20.3096
21.1666
22.058
22.985
23.9489
24.9511
25.9929
27.0756
28.2009
29.3703
30.5854
31.8481
33.1601
34.5236
35.9406
37.4134
38.9442
40.5358
42.1908
43.9121
45.7027
47.5661
49.5058
51.5255
53.6292
55.8214
58.1064
60.4894
62.9756
65.5706
68.2806
71.1119
74.0717
77.1672
80.4067
83.7987
87.3528
91.0789
94.988
99.0923
103.405
107.939
112.71
117.736
123.035
128.626
134.533
140.78
147.394
154.406
161.849
169.759
178.178
187.15
196.723
206.95
217.884
229.578
242.077
255.403
269.551
284.39
299.697
314.733
328.146
337.038
8.15575
8.49191
8.1422
8.49252
8.98879
9.36848
9.74104
10.1545
10.5882
11.0347
11.4994
11.9847
12.491
13.0187
13.5689
14.1428
14.741
15.3646
16.0145
16.6916
17.397
18.1317
18.8966
19.693
20.5219
21.3844
22.2818
23.2154
24.1863
25.1962
26.2462
27.3381
28.4733
29.6536
30.8807
32.1566
33.4831
34.8625
36.297
37.789
39.341
40.9559
42.6364
44.3857
46.207
48.104
50.0803
52.1401
54.2876
56.5274
58.8644
61.3039
63.8514
66.5131
69.2954
72.2053
75.25
78.438
81.7777
85.2785
88.9506
92.8047
96.853
101.109
105.585
110.299
115.266
120.505
126.037
131.885
138.073
144.628
151.583
158.969
166.827
175.196
184.124
193.661
203.861
214.78
226.476
239
252.377
266.612
281.57
297.04
312.182
325.799
334.496
8.00315
8.36966
8.04326
8.33484
8.79249
9.15248
9.50137
9.88961
10.3007
10.7257
11.1686
11.6323
12.1167
12.6223
13.15
13.7009
14.2756
14.875
15.5002
16.1518
16.8311
17.5388
18.2761
19.0439
19.8435
20.676
21.5424
22.4442
23.3827
24.3591
25.375
26.4318
27.5312
28.6749
29.8645
31.1022
32.3898
33.7294
35.1234
36.5741
38.0841
39.656
41.2929
42.9978
44.774
46.625
48.5545
50.5666
52.6655
54.8559
57.1426
59.5307
62.026
64.6343
67.3622
70.2166
73.2048
76.3349
79.6157
83.0561
86.6665
90.4578
94.4419
98.6315
103.041
107.686
112.584
117.752
123.212
128.986
135.099
141.579
148.458
155.77
163.552
171.849
180.706
190.176
200.315
211.183
222.838
235.338
248.711
262.969
277.972
293.514
308.631
322.521
330.443
7.8345
8.21862
7.92214
8.16242
8.58017
8.9192
9.24479
9.60753
9.99515
10.3978
10.8183
11.2594
11.7211
12.2038
12.7082
13.2352
13.7854
14.3598
14.9592
15.5845
16.2365
16.9162
17.6246
18.3629
19.132
19.933
20.7672
21.636
22.5404
23.4819
24.4619
25.482
26.5439
27.649
28.7993
29.9967
31.243
32.5406
33.8915
35.2983
36.7634
38.2896
39.8798
41.537
43.2645
45.0658
46.9446
48.9049
50.951
53.0872
55.3187
57.6504
60.0879
62.6371
65.3044
68.0968
71.0214
74.0864
77.3001
80.6719
84.2116
87.9304
91.8398
95.9527
100.283
104.847
109.66
114.742
120.113
125.795
131.814
138.198
144.977
152.186
159.865
168.055
176.804
186.166
196.197
206.958
218.512
230.917
244.207
258.399
273.346
288.856
303.938
317.912
324.765
7.64813
8.0378
7.77577
7.97227
8.35
8.66719
8.97009
9.30751
9.67115
10.0509
10.4485
10.8663
11.3047
11.7637
12.244
12.7463
13.2713
13.8198
14.3925
14.9903
15.6141
16.2648
16.9433
17.6508
18.3881
19.1566
19.9573
20.7914
21.6604
22.5655
23.5081
24.4899
25.5123
26.5771
27.686
28.841
30.044
31.2971
32.6026
33.9629
35.3804
36.858
38.3984
40.0048
41.6802
43.4282
45.2525
47.1571
49.146
51.2238
53.3952
55.6653
58.0398
60.5242
63.1251
65.849
68.7034
71.6959
74.835
78.1299
81.5905
85.2273
89.0519
93.0773
97.3173
101.787
106.503
111.484
116.749
122.322
128.228
134.493
141.148
148.229
155.773
163.823
172.427
181.637
191.51
202.109
213.493
225.725
238.836
252.848
267.593
282.946
297.759
311.709
316.98
7.44317
7.82727
7.60218
7.76216
8.10068
8.39547
8.67641
8.98899
9.32844
9.68501
10.0593
10.4535
10.8679
11.3027
11.7581
12.2351
12.7341
13.2558
13.801
14.3706
14.9652
15.5859
16.2335
16.9091
17.6136
18.3483
19.1143
19.9127
20.745
21.6121
22.516
23.4579
24.4393
25.4621
26.5279
27.6387
28.7964
30.003
31.261
32.5726
33.9402
35.3667
36.8547
38.4075
40.028
41.7199
43.4866
45.332
47.2605
49.2761
51.3838
53.5886
55.8958
58.3112
60.841
63.4919
66.2709
69.1859
72.245
75.4572
78.8322
82.3808
86.1141
90.0446
94.1862
98.5538
103.163
108.034
113.184
118.637
124.416
130.549
137.067
144.003
151.394
159.283
167.717
176.747
186.43
196.825
207.992
219.991
232.847
246.577
261.001
276.047
290.189
304
306.449
7.21906
7.58782
7.4004
7.53057
7.83133
8.10343
8.36315
8.65155
8.96685
9.30002
9.65074
10.021
10.411
10.8209
11.251
11.7019
12.1742
12.6684
13.1853
13.7257
14.2902
14.8798
15.4955
16.1381
16.8087
17.5084
18.2382
18.9995
19.7935
20.6214
21.4849
22.3851
23.3238
24.3027
25.3234
26.3879
27.4981
28.656
29.8639
31.1242
32.4392
33.8117
35.2443
36.7402
38.3025
39.9345
41.6398
43.4222
45.2858
47.2349
49.2742
51.4085
53.6432
55.984
58.4368
61.0082
63.7052
66.5354
69.5068
72.6283
75.9094
79.3602
82.9923
86.8173
90.8489
95.1019
99.5918
104.337
109.356
114.671
120.306
126.287
132.643
139.408
146.618
154.314
162.542
171.351
180.797
190.935
201.824
213.518
226.035
239.397
253.394
267.965
281.156
294.61
293.961
6.97558
7.32071
7.17015
7.27656
7.5415
7.79079
8.03001
8.29501
8.5864
8.8961
9.22316
9.56915
9.93448
10.3191
10.7233
11.1475
11.5923
12.0583
12.546
13.0563
13.5898
14.1475
14.7301
15.3387
15.9741
16.6376
17.3302
18.053
18.8073
19.5943
20.4157
21.2727
22.1669
23.1
24.0737
25.0898
26.1502
27.2571
28.4125
29.6189
30.8785
32.1941
33.5683
35.0042
36.5047
38.0733
39.7133
41.4286
43.2232
45.1012
47.0672
49.1261
51.2829
53.5432
55.9129
58.3985
61.0067
63.7448
66.6208
69.6432
72.821
76.1647
79.6851
83.3935
87.3032
91.4284
95.7844
100.389
105.259
110.418
115.886
121.691
127.86
134.425
141.421
148.887
156.865
165.404
174.554
184.369
194.899
206.192
218.259
231.125
244.468
258.375
270.306
283.28
278.323
6.71268
7.02755
6.91178
6.99966
7.23109
7.4577
7.67707
7.91953
8.18736
8.47367
8.77704
9.09866
9.43898
9.79796
10.1757
10.5728
10.9895
11.4266
11.8844
12.3639
12.8655
13.3903
13.9389
14.5124
15.1117
15.7377
16.3917
17.0747
17.788
18.5329
19.3107
20.1228
20.971
21.8565
22.7813
23.7471
24.7558
25.8095
26.9102
28.0603
29.2621
30.5182
31.8313
33.2042
34.6401
36.142
37.7135
39.3582
41.0801
42.8831
44.7718
46.7509
48.8254
51.0006
53.2823
55.6767
58.1904
60.8306
63.6048
66.5214
69.5892
72.8183
76.2186
79.8017
83.5804
87.5677
91.7789
96.2306
100.94
105.927
111.215
116.827
122.789
129.132
135.889
143.095
150.791
159.02
167.827
177.261
187.358
198.168
209.676
221.884
234.358
247.418
257.626
269.971
257.927
6.43033
6.71009
6.626
6.6998
6.90027
7.10451
7.30463
7.52538
7.77011
8.03318
8.31286
8.61003
8.92514
9.25811
9.60908
9.97844
10.3665
10.774
11.2013
11.6491
12.1181
12.6091
13.1228
13.6602
14.2221
14.8096
15.4238
16.0657
16.7367
17.438
18.1707
18.9364
19.7367
20.573
21.4471
22.3606
23.3156
24.3139
25.3576
26.449
27.5905
28.7844
30.0336
31.3407
32.7087
34.1408
35.6403
37.2109
38.8562
40.5803
42.3875
44.2824
46.2698
48.3551
50.5436
52.8414
55.2549
57.7911
60.4573
63.2612
66.2119
69.3182
72.5905
76.0397
79.6777
83.517
87.5726
91.8598
96.3953
101.198
106.289
111.69
117.427
123.527
130.021
136.941
144.323
152.206
160.628
169.63
179.242
189.494
200.326
211.741
223.168
235.175
243.087
254.542
234.026
6.12858
6.37018
6.31398
6.37728
6.54946
6.7318
6.91319
7.11302
7.33516
7.57516
7.83124
8.10391
8.39361
8.70031
9.02409
9.36528
9.72422
10.1015
10.4975
10.9129
11.3483
11.8045
12.2823
12.7826
13.3061
13.854
14.4271
15.0267
15.6539
16.3099
16.9961
17.7138
18.4645
19.2496
20.0709
20.9302
21.8291
22.7697
23.7541
24.7843
25.8626
26.9916
28.1737
29.4117
30.7086
32.0673
33.4911
34.9834
36.548
38.1887
39.9097
41.7154
43.6105
45.6
47.6895
49.8843
52.1909
54.6157
57.166
59.8492
62.6735
65.6481
68.7822
72.0861
75.5716
79.2504
83.1364
87.2439
91.5888
96.1885
101.062
106.231
111.717
117.546
123.746
130.346
137.375
144.867
152.855
161.369
170.419
180.01
190.04
200.535
210.692
221.422
226.41
236.783
206.923
5.80758
6.00976
5.97713
6.03272
6.17933
6.34044
6.50356
6.68322
6.88331
7.1005
7.33304
7.58123
7.8454
8.12557
8.42179
8.73438
9.06366
9.41009
9.77418
10.1564
10.5576
10.9782
11.4192
11.8813
12.3654
12.8724
13.4034
13.9593
14.5415
15.151
15.789
16.4571
17.1565
17.8888
18.6557
19.4587
20.2996
21.1805
22.1031
23.0698
24.0826
25.1439
26.2563
27.4224
28.645
29.9271
31.2718
32.6825
34.1626
35.716
37.3467
39.0589
40.8571
42.7462
44.7313
46.8178
49.0117
51.3193
53.7474
56.3027
58.9937
61.8285
64.8159
67.9658
71.2886
74.796
78.5007
82.4156
86.5556
90.9367
95.5759
100.492
105.707
111.241
117.116
123.36
129.999
137.057
144.557
152.513
160.91
169.747
178.869
188.316
196.976
206.272
207.693
216.988
172.766
5.46749
5.63077
5.61715
5.66701
5.79074
5.93142
6.07671
6.23685
6.41543
6.61007
6.81918
7.04288
7.28143
7.53485
7.80323
8.08683
8.38597
8.70105
9.03255
9.38103
9.74707
10.1313
10.5346
10.9576
11.4012
11.8663
12.3539
12.8651
13.4009
13.9625
14.551
15.1679
15.8146
16.4923
17.2028
17.9478
18.7288
19.5478
20.4067
21.3074
22.2523
23.2435
24.2836
25.375
26.5205
27.723
28.9853
30.311
31.7032
33.1656
34.7021
36.3168
38.0139
39.798
41.6742
43.6475
45.7235
47.9084
50.2084
52.6302
55.1813
57.8695
60.7029
63.6912
66.8437
70.1712
73.685
77.3974
81.3213
85.4719
89.864
94.5135
99.4387
104.659
110.193
116.06
122.28
128.866
135.829
143.168
150.853
158.861
166.963
175.227
182.141
189.821
186.922
195.07
132.995
5.1087
5.23514
5.23595
5.28136
5.38474
5.50592
5.63377
5.77496
5.93251
6.10485
6.29066
6.48986
6.70265
6.92911
7.16933
7.42354
7.69203
7.97517
8.27348
8.58746
8.91762
9.26464
9.6293
10.0122
10.4143
10.8364
11.2795
11.7445
12.2326
12.7447
13.2823
13.8464
14.4385
15.06
15.7123
16.3971
17.1161
17.871
18.6636
19.496
20.3703
21.2886
22.2533
23.2669
24.332
25.4513
26.6278
27.8645
29.1646
30.5318
31.9695
33.4818
35.0726
36.7463
38.5078
40.3618
42.3135
44.3687
46.5332
48.8134
51.2161
53.7488
56.419
59.2352
62.2061
65.3419
68.6523
72.1482
75.8413
79.7446
83.8715
88.2355
92.8515
97.7349
102.899
108.358
114.12
120.191
126.568
133.237
140.137
147.222
154.166
161.09
165.958
171.782
163.65
170.559
91.4023
4.73167
4.8248
4.83564
4.87718
4.96259
5.06529
5.17606
5.29878
5.43578
5.58609
5.74866
5.92337
6.11032
6.30962
6.5214
6.74584
6.98324
7.23397
7.49846
7.77728
8.07085
8.37985
8.70502
9.04698
9.40655
9.78459
10.182
10.5997
11.0388
11.5003
11.9854
12.4952
13.0312
13.5948
14.1872
14.8101
15.465
16.1537
16.878
17.6398
18.441
19.2839
20.1707
21.1037
22.0854
23.1186
24.2058
25.3502
26.5547
27.8228
29.1578
30.5635
32.0436
33.6024
35.2442
36.9735
38.7956
40.7152
42.7381
44.8701
47.1174
49.4869
51.9853
54.6201
57.3996
60.3323
63.4273
66.6942
70.1429
73.7846
77.6301
81.6897
85.975
90.4962
95.261
100.277
105.548
111.068
116.818
122.767
128.822
134.914
140.604
146.1
148.697
152.636
138.456
144.526
40.0678
4.33723
4.40168
4.41848
4.45619
4.52572
4.61102
4.70507
4.8097
4.92652
5.05503
5.19447
5.34464
5.50563
5.67759
5.86064
6.05495
6.26082
6.47862
6.70875
6.95173
7.20803
7.47827
7.76307
8.06318
8.37928
8.71221
9.06287
9.43214
9.82097
10.2305
10.6618
11.116
11.5943
12.0982
12.629
13.1881
13.777
14.3976
15.0514
15.7404
16.4663
17.2314
18.0377
18.8874
19.783
20.727
21.722
22.7708
23.8763
25.0418
26.2704
27.5657
28.9312
30.3708
31.8885
33.4886
35.1758
36.9549
38.8308
40.8089
42.895
45.0949
47.4154
49.8625
52.4437
55.1662
58.0379
61.0666
64.2606
67.6289
71.1788
74.9182
78.855
82.9952
87.3416
91.8942
96.6462
101.581
106.662
111.84
116.982
122.006
126.327
130.288
130.351
132.31
111.18
116.562
-16.4214
3.92644
3.96768
3.98686
4.02029
4.07573
4.14469
4.22233
4.30916
4.40612
4.51302
4.62935
4.75494
4.88986
5.03424
5.18824
5.35203
5.5259
5.71025
5.90543
6.11192
6.33019
6.56084
6.8045
7.06182
7.33347
7.62026
7.923
8.24259
8.57994
8.93607
9.31204
9.70898
10.1281
10.5706
11.0378
11.5312
12.0521
12.6024
13.1835
13.7972
14.4453
15.1297
15.8526
16.6161
17.4224
18.2739
19.1731
20.1226
21.1253
22.1839
23.3017
24.4818
25.7276
27.0427
28.4308
29.896
31.4423
33.0742
34.7961
36.6131
38.5301
40.5524
42.6855
44.9352
47.3078
49.8089
52.4452
55.2226
58.1475
61.226
64.4637
67.8652
71.4336
75.1701
79.0717
83.1299
87.3274
91.6348
95.9964
100.342
104.493
108.354
111.162
113.444
110.629
110.461
81.2996
86.1713
-72.514
3.5008
3.52473
3.54329
3.57165
3.61442
3.66807
3.72963
3.79884
3.87617
3.96161
4.05485
4.15578
4.26446
4.38104
4.50571
4.63862
4.78011
4.93049
5.09016
5.25957
5.43919
5.62954
5.83119
6.04484
6.27114
6.51078
6.76459
7.03343
7.31812
7.61964
7.93898
8.27722
8.63556
9.0151
9.41724
9.84316
10.2943
10.7722
11.2784
11.8146
12.3826
12.9841
13.6211
14.2956
15.0097
15.7658
16.5661
17.4131
18.3094
19.2578
20.2611
21.3222
22.4443
23.6307
24.8847
26.2102
27.6105
29.0898
30.6523
32.3019
34.0431
35.8806
37.819
39.8629
42.0175
44.2876
46.6781
49.1933
51.8379
54.6154
57.5285
60.5781
63.7637
67.0807
70.5195
74.0635
77.6847
81.341
84.9564
88.4412
91.5653
94.23
95.4597
96.0536
90.1617
88.0735
50.104
55.4462
-141.904
3.06227
3.07471
3.0903
3.11257
3.14375
3.18299
3.22872
3.28043
3.33827
3.40231
3.47243
3.54859
3.63086
3.7194
3.8144
3.91608
4.02473
4.14067
4.26428
4.39597
4.53622
4.68555
4.84449
5.01363
5.1936
5.38516
5.58899
5.80587
6.0367
6.28236
6.5438
6.82201
7.11809
7.43312
7.76834
8.12504
8.50456
8.90823
9.33765
9.7943
10.2798
10.796
11.3446
11.9276
12.5469
13.2047
13.9032
14.6446
15.4314
16.266
17.1511
18.0894
19.0837
20.1372
21.2528
22.4337
23.6832
25.0047
26.402
27.8785
29.4381
31.0844
32.8212
34.6526
36.582
38.6131
40.7492
42.993
45.3465
47.8108
50.3857
53.0683
55.8534
58.7307
61.6839
64.6877
67.7024
70.6717
73.4974
76.0698
78.1001
79.4939
79.0215
77.8267
68.5571
64.4595
16.7701
22.4591
-208.101
2.61344
2.61956
2.63045
2.64555
2.66582
2.69138
2.72149
2.75571
2.79409
2.83675
2.88367
2.93489
2.99053
3.05075
3.11576
3.18581
3.26115
3.34215
3.42914
3.52252
3.62274
3.73028
3.84566
3.96944
4.10224
4.24469
4.39747
4.56136
4.73714
4.92562
5.1277
5.34435
5.5766
5.82557
6.09221
6.37784
6.68363
7.01105
7.36133
7.73605
8.13673
8.56497
9.02249
9.511
10.0324
10.5887
11.1818
11.8139
12.4872
13.204
13.9666
14.7776
15.6394
16.5548
17.5264
18.5571
19.6497
20.8072
22.0326
23.3289
24.699
26.1461
27.6729
29.2821
30.9762
32.7575
34.6274
36.5867
38.6353
40.7718
42.9919
45.2892
47.6539
50.0693
52.5119
54.947
57.3221
59.566
61.5563
63.1633
64.0299
64.0805
61.7773
58.7229
45.7428
39.7122
-18.6428
-11.9951
-273.431
2.15748
2.16117
2.16623
2.17326
2.18297
2.19534
2.20994
2.22663
2.2455
2.2667
2.2903
2.31641
2.34517
2.37678
2.41148
2.4495
2.49113
2.5367
2.58654
2.64105
2.70062
2.76572
2.83683
2.91447
2.99919
3.09163
3.19243
3.30226
3.42187
3.55204
3.6936
3.84741
4.01448
4.19571
4.39226
4.60513
4.83558
5.08483
5.35414
5.6449
5.95857
6.29661
6.66062
7.05222
7.47313
7.92516
8.41014
8.93001
9.4868
10.0826
10.7194
11.3995
12.1253
12.8989
13.7228
14.5993
15.5309
16.5199
17.5689
18.6802
19.856
21.0985
22.4096
23.7911
25.244
26.7692
28.3665
30.0347
31.7713
33.5722
35.4303
37.3348
39.2709
41.2167
43.1404
44.9984
46.7258
48.2371
49.3848
50.0232
49.72
48.4435
44.2931
39.4856
22.698
15.2427
-54.1526
-45.0868
-357.527
1.69814
1.70134
1.69989
1.6983
1.69758
1.69692
1.696
1.69502
1.69425
1.69384
1.69391
1.69464
1.69624
1.69893
1.70294
1.70853
1.716
1.72564
1.73778
1.7528
1.77108
1.79304
1.81912
1.84983
1.88567
1.92719
1.97497
2.02968
2.09197
2.16262
2.24233
2.33194
2.43228
2.54438
2.66909
2.80757
2.96076
3.12992
3.31613
3.5208
3.74515
3.99059
4.25856
4.55056
4.86815
5.21297
5.58668
5.99103
6.42782
6.89887
7.40604
7.95133
8.53664
9.16389
9.83516
10.5524
11.3174
12.1323
12.9988
13.9186
14.8931
15.9237
17.0113
18.1563
19.3588
20.6179
21.9316
23.2969
24.7087
26.1596
27.6392
29.133
30.6201
32.0724
33.4505
34.7007
35.7441
36.4802
36.733
36.3414
34.7855
32.0914
25.9377
19.2483
-1.69954
-10.8383
-91.9958
-81.7003
-419.691
1.23942
1.24192
1.23374
1.22342
1.21215
1.19832
1.18169
1.16287
1.14224
1.11999
1.09627
1.07135
1.04547
1.01888
0.991822
0.964574
0.937413
0.91064
0.884572
0.859549
0.835929
0.814072
0.79443
0.777393
0.763481
0.753181
0.747028
0.745603
0.74953
0.759409
0.77603
0.800108
0.832438
0.873778
0.925164
0.987395
1.06161
1.14868
1.24991
1.36625
1.49901
1.64943
1.81881
2.00853
2.21996
2.45459
2.71391
2.99942
3.31271
3.65543
4.02912
4.43545
4.87604
5.3525
5.86645
6.4194
7.01279
7.64792
8.32609
9.04816
9.81499
10.6268
11.4835
12.3845
13.3283
14.3125
15.3333
16.3855
17.4615
18.5509
19.6396
20.7088
21.7323
22.6754
23.4904
24.1134
24.4515
24.3894
23.7207
22.2731
19.4268
15.298
7.067
-1.44746
-26.7575
-37.2188
-130.313
-117.983
-484.844
0.785017
0.784842
0.77019
0.751358
0.72917
0.701714
0.669082
0.632165
0.591398
0.546977
0.499161
0.448262
0.394567
0.338331
0.279829
0.219329
0.157109
0.093466
0.028689
-0.0369321
-0.103056
-0.169306
-0.235358
-0.300785
-0.3652
-0.428142
-0.4891
-0.547594
-0.603088
-0.654934
-0.70254
-0.745262
-0.782349
-0.812971
-0.836473
-0.85192
-0.858444
-0.855031
-0.840807
-0.814642
-0.775463
-0.722167
-0.653577
-0.56847
-0.465613
-0.343718
-0.201485
-0.0375577
0.149392
0.360727
0.59781
0.861935
1.15446
1.47666
1.82964
2.21454
2.63228
3.08368
3.56931
4.08948
4.64394
5.23229
5.85337
6.50533
7.18541
7.88944
8.61201
9.34555
10.0801
10.8024
11.4947
12.1332
12.6875
13.1163
13.3633
13.355
12.9849
12.1237
10.5342
8.03977
3.91007
-1.6103
-11.9098
-22.0806
-51.747
-62.9851
-167.693
-152.423
-565.191
0.338175
0.332082
0.311769
0.284766
0.250972
0.209215
0.160185
0.10482
0.0435208
-0.0234514
-0.0957453
-0.173006
-0.25492
-0.341199
-0.431564
-0.525742
-0.623476
-0.724496
-0.828529
-0.935273
-1.04445
-1.1558
-1.26894
-1.38356
-1.49926
-1.61568
-1.73241
-1.84903
-1.96495
-2.07972
-2.19282
-2.30359
-2.41141
-2.51572
-2.61567
-2.71051
-2.79951
-2.88182
-2.95651
-3.02272
-3.07947
-3.12575
-3.16056
-3.18283
-3.19149
-3.18542
-3.16348
-3.12459
-3.06761
-2.99147
-2.89505
-2.77734
-2.6374
-2.47431
-2.28733
-2.0758
-1.8393
-1.57765
-1.29092
-0.979628
-0.644614
-0.287401
0.0897871
0.483797
0.89036
1.30387
1.71696
2.1197
2.49942
2.83955
3.11873
3.30921
3.37383
3.26501
2.91772
2.24858
1.13563
-0.563987
-3.12266
-6.7177
-12.2066
-19.1889
-31.697
-43.6107
-77.8958
-90.1805
-206.637
-190.008
-615.379
-0.0983211
-0.114293
-0.1389
-0.173713
-0.220092
-0.277017
-0.342931
-0.417149
-0.499429
-0.589417
-0.686619
-0.790637
-0.901159
-1.01788
-1.14052
-1.26881
-1.4025
-1.54133
-1.68506
-1.83346
-1.98628
-2.14322
-2.30404
-2.46848
-2.63622
-2.80691
-2.9802
-3.1557
-3.33305
-3.51181
-3.6914
-3.87144
-4.05135
-4.23049
-4.40831
-4.58409
-4.75716
-4.92688
-5.09244
-5.25292
-5.40762
-5.55567
-5.69614
-5.82817
-5.9508
-6.06316
-6.16434
-6.25338
-6.32948
-6.39168
-6.43931
-6.47155
-6.48782
-6.48764
-6.4706
-6.43662
-6.38575
-6.31848
-6.23545
-6.13783
-6.02756
-5.90703
-5.77948
-5.64949
-5.52244
-5.40593
-5.30925
-5.24461
-5.22728
-5.27686
-5.41869
-5.68539
-6.11867
-6.77383
-7.72381
-9.06224
-10.9264
-13.4709
-17.0051
-21.6977
-28.5501
-36.9549
-51.6812
-65.1719
-104.074
-116.94
-244.319
-225.99
-671.587
-0.522132
-0.552158
-0.579144
-0.621565
-0.681843
-0.754926
-0.838249
-0.931812
-1.03564
-1.14915
-1.27171
-1.40293
-1.5425
-1.69008
-1.84541
-2.00823
-2.17828
-2.35536
-2.53927
-2.72978
-2.92669
-3.12984
-3.33898
-3.55385
-3.77424
-3.9999
-4.23053
-4.46585
-4.70553
-4.94913
-5.19638
-5.44682
-5.69996
-5.95525
-6.21237
-6.47064
-6.72934
-6.98815
-7.24618
-7.50286
-7.75749
-8.00935
-8.25766
-8.50178
-8.74088
-8.97419
-9.20111
-9.42083
-9.63285
-9.83646
-10.0312
-10.2167
-10.3927
-10.5589
-10.7156
-10.8629
-11.0017
-11.1328
-11.2577
-11.3783
-11.4974
-11.6182
-11.7451
-11.884
-12.0419
-12.2278
-12.4531
-12.7323
-13.0829
-13.5281
-14.0968
-14.8261
-15.764
-16.9709
-18.5289
-20.5409
-23.1594
-26.5489
-31.0582
-36.8364
-45.0456
-54.8222
-71.7503
-86.6587
-130.061
-143.22
-280.448
-260.837
-730.264
-0.931295
-0.979345
-1.00634
-1.05644
-1.13221
-1.2225
-1.32382
-1.43733
-1.56332
-1.70093
-1.84938
-2.00828
-2.17733
-2.35622
-2.54466
-2.74243
-2.94928
-3.16506
-3.3896
-3.62272
-3.86427
-4.11413
-4.3721
-4.63806
-4.91181
-5.1932
-5.482
-5.77798
-6.08093
-6.39051
-6.70637
-7.02835
-7.35602
-7.68898
-8.02679
-8.36898
-8.71517
-9.06485
-9.41746
-9.7724
-10.1292
-10.4872
-10.8459
-11.2047
-11.563
-11.9203
-12.276
-12.6298
-12.9812
-13.33
-13.6758
-14.0185
-14.3585
-14.6957
-15.0308
-15.3646
-15.6984
-16.0336
-16.3724
-16.7175
-17.0725
-17.4418
-17.8309
-18.2469
-18.6981
-19.1959
-19.7529
-20.3863
-21.1167
-21.9701
-22.9799
-24.1869
-25.6445
-27.421
-29.6067
-32.3139
-35.7112
-39.9718
-45.4878
-52.3805
-61.9928
-73.1628
-92.3692
-108.696
-156.642
-170.297
-316.609
-297.338
-761.68
-1.32415
-1.39362
-1.41787
-1.47608
-1.56918
-1.67774
-1.79768
-1.93183
-2.08069
-2.24299
-2.41783
-2.6049
-2.80391
-3.01452
-3.23648
-3.46955
-3.7136
-3.96848
-4.23401
-4.51011
-4.79674
-5.09376
-5.4011
-5.71866
-6.04637
-6.3841
-6.73172
-7.0891
-7.45606
-7.83238
-8.218
-8.61261
-9.01587
-9.4275
-9.84736
-10.2751
-10.71
-11.1521
-11.6008
-12.0557
-12.5165
-12.9826
-13.4538
-13.9294
-14.4093
-14.893
-15.3802
-15.8706
-16.3643
-16.8609
-17.3607
-17.864
-18.3711
-18.8828
-19.3999
-19.9238
-20.4562
-20.9993
-21.5562
-22.13
-22.7253
-23.3474
-24.0032
-24.7008
-25.4506
-26.2647
-27.1585
-28.1515
-29.2663
-30.5328
-31.9874
-33.6759
-35.6579
-38.0068
-40.8219
-44.2238
-48.3973
-53.5207
-60.0325
-68.0113
-79.002
-91.4781
-112.91
-130.423
-182.682
-196.432
-350.146
-331.767
-801.602
-1.69926
-1.79265
-1.81121
-1.87844
-1.9909
-2.11881
-2.25802
-2.41357
-2.58605
-2.77368
-2.97547
-3.19119
-3.4206
-3.66338
-3.91925
-4.18802
-4.46961
-4.76393
-5.07082
-5.39035
-5.72244
-6.06703
-6.42418
-6.79383
-7.176
-7.57067
-7.97771
-8.3972
-8.82898
-9.27302
-9.72912
-10.1973
-10.6773
-11.169
-11.672
-12.1863
-12.7116
-13.2477
-13.7943
-14.351
-14.9177
-15.494
-16.0796
-16.6744
-17.2781
-17.8906
-18.5118
-19.1416
-19.7803
-20.4279
-21.0849
-21.7518
-22.4295
-23.1189
-23.8216
-24.5393
-25.2742
-26.0293
-26.8082
-27.6149
-28.4547
-29.3343
-30.2614
-31.2455
-32.2982
-33.4335
-34.6692
-36.0261
-37.5306
-39.2153
-41.1197
-43.2949
-45.805
-48.7296
-52.1766
-56.274
-61.2229
-67.2037
-74.7044
-83.7464
-96.0983
-109.812
-133.422
-151.968
-208.264
-222.061
-381.565
-365.36
-837.153
-2.05538
-2.17411
-2.18395
-2.26165
-2.39567
-2.5439
-2.70313
-2.88094
-3.07783
-3.29143
-3.52073
-3.76566
-4.02593
-4.30127
-4.59142
-4.89627
-5.21576
-5.54984
-5.89849
-6.26173
-6.63965
-7.03224
-7.43961
-7.86186
-8.29901
-8.75114
-9.21833
-9.7006
-10.198
-10.7106
-11.2382
-11.7809
-12.3387
-12.9114
-13.4991
-14.1017
-14.7189
-15.3506
-15.9967
-16.6572
-17.3318
-18.0204
-18.7229
-19.4393
-20.1696
-20.9136
-21.6718
-22.4441
-23.231
-24.033
-24.8507
-25.685
-26.5373
-27.4088
-28.3014
-29.2175
-30.1598
-31.132
-32.1381
-33.1832
-34.2736
-35.4167
-36.6214
-37.8988
-39.2618
-40.7263
-42.3117
-44.0414
-45.9445
-48.0567
-50.4212
-53.0936
-56.1431
-59.6559
-63.7475
-68.5536
-74.292
-81.1424
-89.648
-99.7589
-113.492
-128.428
-154.228
-173.779
-233.938
-248.078
-411.947
-399.799
-846.839
-2.3914
-2.53554
-2.53379
-2.624
-2.78179
-2.95131
-3.13131
-3.33231
-3.55445
-3.79468
-4.05205
-4.32664
-4.61822
-4.92652
-5.25128
-5.59252
-5.95016
-6.32423
-6.71488
-7.12211
-7.54612
-7.98699
-8.44496
-8.92013
-9.41265
-9.92272
-10.4505
-10.9962
-11.5597
-12.1415
-12.7414
-13.3595
-13.9961
-14.651
-15.3244
-16.0163
-16.7267
-17.4555
-18.2027
-18.9685
-19.7528
-20.5555
-21.3769
-22.2169
-23.0758
-23.9539
-24.8513
-25.7686
-26.7064
-27.6656
-28.6468
-29.6516
-30.6814
-31.738
-32.8239
-33.9417
-35.0948
-36.2876
-37.5245
-38.8119
-40.1566
-41.5671
-43.0532
-44.6275
-46.3044
-48.1016
-50.0406
-52.1464
-54.4514
-56.9938
-59.8207
-62.9916
-66.5805
-70.6796
-75.4123
-80.9196
-87.437
-95.138
-104.626
-115.758
-130.828
-146.869
-174.76
-195.078
-258.684
-272.974
-438.933
-433.837
-863.45
-2.7062
-2.87447
-2.85862
-2.96398
-3.14781
-3.33941
-3.54104
-3.76625
-4.01446
-4.28195
-4.56796
-4.8727
-5.19599
-5.53755
-5.89722
-6.27506
-6.67109
-7.08544
-7.51822
-7.96966
-8.43998
-8.92937
-9.43816
-9.96657
-10.5149
-11.0832
-11.6721
-12.2816
-12.9119
-13.5634
-14.2363
-14.9307
-15.6468
-16.3851
-17.1453
-17.9275
-18.7323
-19.5595
-20.4094
-21.2821
-22.1776
-23.0963
-24.0384
-25.0041
-25.9938
-27.0079
-28.0469
-29.1117
-30.2029
-31.3217
-32.4692
-33.6471
-34.8573
-36.102
-37.384
-38.7067
-40.0738
-41.49
-42.9611
-44.4938
-46.0958
-47.7767
-49.5476
-51.4219
-53.4158
-55.5482
-57.843
-60.3272
-63.035
-66.0084
-69.2979
-72.9665
-77.0931
-81.7743
-87.1416
-93.34
-100.623
-109.151
-119.595
-131.697
-148.056
-165.088
-194.957
-215.85
-282.444
-296.857
-462.724
-463.555
-887.538
-2.99874
-3.18838
-3.1565
-3.28033
-3.49235
-3.7068
-3.93099
-4.18151
-4.45662
-4.75203
-5.06721
-5.40258
-5.75794
-6.13309
-6.52793
-6.94258
-7.37719
-7.83198
-8.3071
-8.80292
-9.31974
-9.85786
-10.4177
-10.9996
-11.6039
-12.231
-12.8812
-13.5551
-14.2529
-14.9748
-15.7214
-16.4929
-17.2896