/*--------------------------------*- C++ -*----------------------------------*\
  =========                 |
  \\      /  F ield         | OpenFOAM: The Open Source CFD Toolbox
   \\    /   O peration     | Website:  https://openfoam.org
    \\  /    A nd           | Version:  11
     \\/     M anipulation  |
\*---------------------------------------------------------------------------*/
FoamFile
{
    format      ascii;
    class       surfaceScalarField;
    location    "350";
    object      phi;
}
// * * * * * * * * * * * * * * * * * * * * * * * * * * * * * * * * * * * * * //

dimensions      [0 3 -1 0 0 0 0];

internalField   nonuniform List<scalar> 
62845
(
422013
-1.89559e+06
1.90571e+06
396366
-1.80374e+06
1.82938e+06
379140
-1.713e+06
1.73023e+06
359556
-1.62671e+06
1.64629e+06
342008
-1.54459e+06
1.56214e+06
324622
-1.46654e+06
1.48393e+06
308466
-1.39215e+06
1.40831e+06
292930
-1.32144e+06
1.33698e+06
278208
-1.25419e+06
1.26892e+06
264180
-1.1903e+06
1.20433e+06
250907
-1.12962e+06
1.14289e+06
238327
-1.07196e+06
1.08454e+06
226290
-1.01711e+06
1.02915e+06
214971
-965138
976457
204103
-915634
926502
193919
-868751
878935
184150
-824084
833853
174884
-781786
791053
166151
-741598
750331
157840
-703372
711683
149886
-667103
675057
142424
-632739
640200
135295
-599977
607106
128534
-568965
575725
122131
-539499
545902
116024
-511478
517585
110253
-484948
490719
104760
-459710
465203
99583.1
-435808
440985
94565.4
-412992
418009
89897.4
-391459
396127
85421.7
-370958
375434
81179.6
-351536
355778
77164.6
-333043
337058
73320.5
-315526
319371
69689.7
-298885
302515
66216.3
-283114
286588
62944.2
-268118
271390
59818.4
-253886
257012
56843.4
-240388
243363
54014.1
-227577
230406
51325.8
-215417
218106
48764.2
-203873
206435
46329.9
-192922
195357
44009.2
-182525
184845
41803
-172658
174864
39693.5
-163293
165402
37691.4
-154411
156413
35779.4
-145973
147885
33959.1
-137972
139793
32223
-130374
132110
30568.3
-123165
124820
28983.3
-116318
117903
27479.2
-109828
111332
26040
-103662
105101
24663.6
-97804.3
99180.7
23352.3
-92252.5
93563.7
22095.5
-86977.3
88234.1
20899.7
-81967.6
83163.3
19754.6
-77212.6
78357.6
18658.5
-72696.7
73792.8
17609.6
-68404.7
69453.6
16606.4
-64330.1
65333.3
15647.4
-60457.9
61416.9
14726.9
-56777.3
57697.8
13847.7
-53277.7
54156.9
13000.1
-49948.5
50796
12187.1
-46783.3
47596.3
11411.1
-43775.4
44551.4
10663.1
-40902.7
41650.7
9941.89
-38170.3
38891.6
9249.96
-35564.1
36256.1
8586
-33081.1
33745.1
7941.58
-30703.6
31348
7322.46
-28432.3
29051.4
6721.14
-26259
26860.4
6139.77
-24173.4
24754.8
5575.61
-22170.1
22734.3
5026.9
-20240.5
20789.2
4491.77
-18377.6
18912.8
3968.48
-16573.5
17096.8
3455.16
-14819.9
15333.2
2950.16
-13108.3
13613.3
2451.22
-11430.7
11929.6
1956.77
-9776.61
10271.1
1467.04
-8141.96
8631.69
979.305
-6511.62
6999.35
513.12
-4916.93
5383.12
-3260.02
3773.14
513226
-1.87237e+06
487495
-1.77801e+06
463519
-1.68903e+06
440470
-1.60366e+06
418450
-1.52257e+06
397386
-1.44548e+06
377415
-1.37218e+06
358397
-1.30243e+06
340305
-1.2361e+06
323158
-1.17316e+06
306844
-1.11331e+06
291339
-1.05645e+06
276678
-1.00245e+06
262688
-951148
249454
-902400
236857
-856154
224930
-812158
213556
-770412
202771
-730813
192560
-693161
182908
-657451
173652
-623483
164930
-591254
156579
-560614
148688
-531608
141245
-504035
134141
-477845
127366
-452934
120909
-429351
114862
-406945
109116
-385713
103614
-365457
98349.7
-346271
93411.6
-328105
88695.5
-310810
84243.5
-294433
80001.4
-278872
75961.6
-264078
72104.5
-250029
68458.1
-236741
64984.4
-224103
61683.1
-212116
58543.6
-200734
55553.5
-189932
52707.1
-179678
50001.5
-169953
47427.8
-160719
44973.1
-151956
42638.9
-143639
40412.5
-135746
38295.6
-128257
36276.1
-121146
34355.9
-114397
32518.6
-107991
30766.6
-101910
29101.9
-96139.6
27508.9
-90659.4
25989.9
-85458.2
24538.6
-80516.3
23153
-75827
21831.4
-71375
20567.7
-67140.9
19364.4
-63126.8
18207.2
-59300.7
17102.9
-55673.1
16050.1
-52224.8
15043
-48941.4
14076.3
-45816.6
13148.7
-42847.8
12258.8
-40012.7
11409
-37320.6
10594.1
-34749.2
9805.52
-32292.5
9049.23
-29947.3
8323.74
-27706.8
7623.11
-25558.4
6946.32
-23496.6
6291.91
-21515.7
5657.7
-19606.3
5041.81
-17761.7
4442.16
-15973.8
3856.68
-14234.4
3283.02
-12534.7
2719.34
-10867
2163.31
-9220.59
1614.46
-7593.1
1071.92
-5969.09
546.867
-4391.87
-2713.15
606207
-1.84135e+06
576250
-1.74805e+06
547449
-1.66023e+06
520041
-1.57625e+06
493967
-1.4965e+06
469088
-1.4206e+06
445412
-1.34851e+06
422927
-1.27994e+06
401566
-1.21474e+06
381252
-1.15284e+06
361975
-1.09403e+06
343663
-1.03814e+06
326297
-985083
309756
-934608
294073
-886717
279181
-841261
265060
-798038
251697
-757049
238925
-718041
226827
-681063
215291
-645915
204404
-612596
194052
-580903
184273
-550834
174904
-522239
166036
-495167
157608
-469417
149659
-444985
142082
-421773
134865
-399728
127952
-378800
121481
-358986
115347
-340138
109444
-322203
103913
-305279
98597.1
-289117
93542.7
-273818
88750.4
-259286
84230.7
-245509
79905.5
-232416
75801.8
-219999
71895.5
-208210
68178.8
-197017
64650.1
-186404
61291.7
-176320
58095.3
-166756
55056.5
-157680
52162.1
-149062
49408.3
-140885
46783.6
-133121
44284
-125757
41907
-118769
39640.4
-112131
37486.2
-105836
35428
-99851.9
33468.3
-94179.9
31604.4
-88795.5
29821.1
-83674.9
28124.7
-78820
26509.3
-74211.5
24959.5
-69825.3
23486.7
-65668.1
22076.1
-61716.2
20738.9
-57963.4
19456.3
-54390.5
18227.2
-50995.7
17053.8
-47768.1
15934.7
-44697.5
14860.5
-41773.6
13837.4
-38989.6
12856.3
-36339.5
11912.2
-33805.1
11010.9
-31391.2
10147.2
-29083.7
9313.17
-26872.7
8512.15
-24757.4
7741.92
-22726.4
6998.58
-20772.4
6280.52
-18888.2
5585.64
-17066.9
4910.99
-15299.2
4254.62
-13578
3613.91
-11894
2986.57
-10239.7
2370.24
-8604.25
1763.41
-6986.28
1167.02
-5372.69
584.767
-3809.62
-2128.38
698332
-1.80459e+06
663418
-1.71314e+06
630050
-1.62686e+06
598393
-1.54459e+06
568165
-1.46627e+06
539518
-1.39195e+06
512276
-1.32126e+06
486332
-1.254e+06
461764
-1.19017e+06
438366
-1.12945e+06
416147
-1.07181e+06
395097
-1.01709e+06
374995
-964981
356023
-915636
337961
-868654
320840
-824141
304544
-781742
289056
-741561
274410
-703395
260491
-667145
247236
-632660
234680
-600039
222759
-568982
211413
-539488
200680
-511506
190447
-484935
180754
-459724
171543
-435774
162802
-413033
154473
-391399
146598
-370925
139118
-351506
131975
-332994
125213
-315440
118773
-298839
112700
-283044
106886
-268004
101378
-253778
96138.6
-240269
91165.8
-227443
86432.4
-215266
81932.2
-203710
77660.3
-192745
73588.8
-182332
69724
-172455
66049.2
-163081
62547.9
-154179
59221.5
-145735
56052.8
-137716
53041.2
-130110
50176.4
-122893
47444.1
-116037
44847.7
-109534
42369.8
-103359
40017
-97499.2
37768.9
-91931.7
35627.5
-86654.2
33594.9
-81642.3
31651.4
-76876.5
29799.1
-72359.2
28040.4
-68066.6
26356
-63983.8
24752.9
-60113.1
23216.2
-56426.8
21757.3
-52931.5
20365.5
-49603.9
19035.4
-46438
17761.6
-43423.6
16549.9
-40562
15387.7
-37827.4
14276.7
-35228.6
13215.9
-32744.2
12196
-30371.3
11219.4
-28107.1
10286.7
-25940
9389.78
-23860.5
8527.2
-21863.8
7697.33
-19942.5
6897.45
-18088.3
6124.82
-16294.2
5377.45
-14551.8
4651.86
-12852.4
3946.08
-11188.2
3256.81
-9550.41
2581.57
-7929
1918.53
-6323.24
1267.97
-4722.13
626.561
-3168.21
-1501.82
788430
-1.76267e+06
748791
-1.6735e+06
710984
-1.58905e+06
675102
-1.50871e+06
641060
-1.43223e+06
608599
-1.35949e+06
577769
-1.29044e+06
548549
-1.22478e+06
520759
-1.16238e+06
494379
-1.10307e+06
469347
-1.04678e+06
445480
-993224
422912
-942413
401429
-894154
381053
-848278
361674
-804762
343318
-763386
325872
-724114
309268
-686791
293542
-651419
278630
-617747
264416
-585826
250940
-555506
238189
-526736
226049
-499366
214511
-473397
203564
-448777
193149
-425358
183254
-403138
173872
-382017
164992
-362045
156459
-342973
148463
-324999
140847
-307824
133555
-291548
126630
-276119
120114
-261488
113888
-247552
107976
-234357
102353
-221820
97007.5
-209921
91931.9
-198634
87104.8
-187918
82517.4
-177745
78151.3
-168089
74001.5
-158932
70056.1
-150233
66300.7
-141980
62731.1
-134147
59336.4
-126715
56102.2
-119658
53027
-112961
50096.9
-106604
47314.7
-100576
44659.2
-94843.6
42137.2
-89409.7
39732.3
-84249.4
37438
-79348
35260.6
-74699.1
33180.6
-70279.2
31200
-66086
29312.6
-62096.4
27512.2
-58312.6
25796.9
-54711.5
24160.6
-51295.2
22597.5
-48040.8
21110
-44950.4
19692
-42005.6
18330.2
-39200.2
17034.8
-36531.9
15796.4
-33990.1
14609.3
-31557.2
13479.7
-29241.7
12395
-27022.3
11355.5
-24900.5
10358.7
-22863.7
9402.34
-20907.5
8482.55
-19022.7
7597.65
-17203.4
6744.1
-15440.7
5918.91
-13726.6
5119.46
-12053
4342.45
-10411.2
3584.73
-8792.69
2843.01
-7187.28
2114.46
-5594.69
1398.62
-4006.29
684.452
-2454.05
-817.37
876326
-1.71598e+06
832067
-1.62924e+06
790037
-1.54702e+06
750054
-1.46873e+06
712121
-1.39429e+06
676084
-1.32346e+06
641846
-1.2562e+06
609324
-1.19226e+06
578385
-1.13144e+06
549055
-1.07374e+06
521179
-1.0189e+06
494773
-966818
469612
-917251
445781
-870323
423121
-825618
401595
-783236
381143
-742934
361759
-704730
343359
-668391
325841
-633901
309235
-601141
293480
-570071
278511
-540537
264265
-512491
250732
-485833
237950
-460615
225709
-436536
214148
-413797
203159
-392148
192781
-371639
182807
-352071
173478
-333643
164486
-316007
155975
-299313
147936
-283509
140265
-268448
132954
-254177
126052
-240649
119469
-227774
113219
-215570
107284
-203985
101636
-192986
96267.8
-182550
91168.9
-172646
86320.9
-163241
81706.2
-154317
77324.2
-145851
73156.7
-137812
69192.5
-130183
65417.2
-122940
61830.9
-116072
58419.1
-109549
55169
-103354
52077.2
-97484.4
49140
-91906.4
46338
-86607.7
43672.5
-81583.8
41137
-76812.5
38720.1
-72282.2
36419.4
-67978.5
34224
-63890.6
32140.6
-60013.1
30150
-56322
28258.6
-52820.1
26447.8
-49484.4
24728.1
-46321.2
23081.5
-43303.8
21514.1
-40438.3
20020.4
-37706.5
18594.5
-35106
17227.2
-32622.8
15928.1
-30258.2
14684.3
-27997.9
13494.1
-25832.1
12352.9
-23759.3
11261.1
-21771.9
10214.3
-19860.7
9209.45
-18017.8
8243.26
-16237.2
7312.67
-14510.1
6414.48
-12828.4
5545.32
-11183.8
4701.86
-9567.72
3880.13
-7970.96
3076.4
-6383.55
2287.41
-4805.7
1506.85
-3225.73
710.893
-1658.09
-106.476
961694
-1.66477e+06
913014
-1.58056e+06
866786
-1.5008e+06
822959
-1.4249e+06
781220
-1.35255e+06
741668
-1.2839e+06
704050
-1.21858e+06
668346
-1.15655e+06
634490
-1.09759e+06
602247
-1.04149e+06
571691
-988346
542610
-937737
515039
-889680
488840
-844124
463997
-800775
440349
-759588
417932
-720516
396606
-683404
376393
-648177
357193
-614701
339010
-582958
321672
-552733
305222
-524086
289595
-496864
274780
-471018
260665
-446501
247289
-423161
234595
-401102
222520
-380073
211056
-360175
200195
-341211
189828
-323277
179999
-306178
170699
-290012
161822
-274632
153410
-260036
145415
-246181
137798
-233033
130579
-220555
123719
-208711
117197
-197462
110997
-186787
105108
-176661
99508.3
-167046
94183.9
-157917
89126.1
-149259
84312.5
-141038
79738.5
-133238
75386.6
-125831
71252.4
-118805
67315.4
-112135
63576.6
-105811
60017.7
-99795.3
56632.3
-94099
53408.5
-88682.6
50343.5
-83542.8
47425.6
-78665.9
44647.5
-74034.3
42002.7
-69637.4
39489
-65464.7
37094.8
-61496.5
34809.8
-57728.1
32636.2
-54148.4
30567.6
-50751.5
28597.9
-47514.7
26712.6
-44435.9
24926.5
-41517.6
23217
-38728.9
21590.8
-36080.2
20033.9
-33549.1
18556.5
-31145.4
17137.6
-28839.3
15786.9
-26647.2
14494.7
-24539.9
13261.3
-22525.8
12080.4
-20591
10948.7
-18729
9864.38
-16933.5
8822.66
-15195.5
7821.23
-13508.7
6856.26
-11863.4
5924.23
-10251.8
5021.11
-8664.59
4143.2
-7093.05
3285.39
-5525.73
2444.1
-3964.41
1606.73
-2388.37
762.948
-814.307
656.472
1.04439e+06
-1.60917e+06
991538
-1.52771e+06
941328
-1.45059e+06
893594
-1.37717e+06
848334
-1.3073e+06
805330
-1.2409e+06
764472
-1.17772e+06
725674
-1.11775e+06
688823
-1.06074e+06
653833
-1.0065e+06
620593
-955106
589065
-906209
559131
-859747
530631
-815624
503585
-773729
477985
-733988
453604
-696135
430484
-660284
408493
-626187
387639
-593846
367788
-563108
348987
-533932
331123
-506222
314123
-479864
298036
-454932
282698
-431163
268200
-408662
254379
-387281
241277
-366971
228836
-347734
216996
-329371
205750
-312031
195090
-295518
184959
-279881
175300
-264973
166155
-250892
157465
-237491
149208
-224776
141359
-212706
133898
-201249
126814
-190378
120080
-180052
113682
-170263
107594
-160958
101816
-152138
96320.5
-143764
91092.7
-135810
86124.4
-128270
81407.1
-121113
76914.6
-114313
72648
-107869
68578.5
-101741
64720
-95936.7
61044.6
-90423.7
57550.7
-85188.6
54229.6
-80221.8
51065
-75501.3
48055.9
-71025.2
45190.4
-66771.9
42465.5
-62739.8
39871
-58901.9
37399.3
-55256.5
35049.1
-51798.2
32809.6
-48512
30674.4
-45379.4
28646.1
-42407.5
26709.8
-39581.3
24868.2
-36887.3
23107.3
-34319.3
21437
-31878.8
19836
-29544.4
18314
-27317.3
16858.3
-25191.5
15471.4
-23153.1
14145.1
-21199.5
12877.2
-19323.1
11664.7
-17516.4
10502.6
-15771.5
9389.46
-14082.4
8319.74
-12439
7291.2
-10834.9
6299.25
-9259.87
5339.7
-7705.04
4408.16
-6161.51
3499.68
-4617.26
2609
-3073.72
1719.9
-1499.27
867.329
38.2665
1523.8
1.12411e+06
-1.54926e+06
1.06725e+06
-1.47084e+06
1.0132e+06
-1.39654e+06
961892
-1.32586e+06
913173
-1.25858e+06
866816
-1.19454e+06
822902
-1.13381e+06
781103
-1.07595e+06
741425
-1.02106e+06
703830
-968909
668004
-919279
634054
-872259
601797
-827490
571166
-784993
542087
-744650
514449
-706350
488229
-669915
463309
-635365
439681
-602559
417169
-571335
395866
-541805
375562
-513627
356333
-486993
338081
-461612
320687
-437537
304233
-414710
288570
-392998
273732
-372444
259563
-352802
246152
-334323
233440
-316659
221321
-299912
209787
-283984
198880
-268974
188542
-254635
178661
-241010
169297
-228127
160400
-215879
151950
-204256
143917
-193216
136286
-182747
129036
-172803
122139
-163366
115592
-154411
109363
-145910
103442
-137842
97821.3
-130190
92472.2
-122921
87387.2
-116028
82555.8
-109481
77959.2
-103272
73591.8
-97373.9
69433
-91778
65482.9
-86473.5
61722.5
-81428.3
58142.1
-76641.3
54743
-72102.2
51507.5
-67789.8
48429.2
-63693.6
45498.1
-59808.7
42711.1
-56114.8
40057.4
-52602.8
37530.3
-49271.1
35123.2
-46105
32838.7
-43094.9
30657.7
-40226.5
28578.6
-37502.3
26599.3
-34908
24717.7
-32437.6
22920.1
-30081.3
21208.7
-27832.9
19577.5
-25686.2
18017.4
-23631.3
16530.5
-21666.2
15111.2
-19780.2
13754.6
-17966.5
12457.5
-16219.3
11216.1
-14530.1
10026
-12892.2
8884.34
-11297.3
7786.18
-9736.74
6727.71
-8201.4
5704.31
-6681.64
4711.03
-5168.23
3742.23
-3648.45
2790.72
-2122.22
1841.84
-550.391
936.212
943.893
2460.01
1.2009e+06
-1.48533e+06
1.14017e+06
-1.41011e+06
1.08245e+06
-1.33883e+06
1.02759e+06
-1.27099e+06
975511
-1.2065e+06
926046
-1.14508e+06
879056
-1.08682e+06
834468
-1.03137e+06
792071
-978662
751818
-928656
713658
-881119
677305
-835905
642844
-793029
610150
-752299
579062
-713562
549497
-676785
521506
-641924
494862
-608720
469598
-577295
445605
-547342
422766
-518966
401115
-491976
380550
-466428
360996
-442058
342496
-419037
324846
-397060
308129
-376281
292185
-356500
277156
-337772
262783
-319951
249159
-303035
236225
-286978
223973
-271732
212248
-257249
201142
-243529
190647
-230515
180635
-218115
171128
-206373
162088
-195216
153502
-184631
145343
-174588
137590
-165050
130225
-156000
123225
-147412
116571
-139256
110251
-131522
104238
-124177
98524
-117207
93090.5
-110595
87929
-104320
83017.9
-98360.8
78347.6
-92703.6
73913.4
-87343.8
69690.9
-82251
65674.3
-77411.8
61859.7
-72826.7
58231.2
-68473.6
54772
-64330.7
51491.3
-60412.9
48360.2
-56677.6
45384.3
-53138.9
42560
-49778.5
39867.6
-46578.7
37300.5
-43538
34860.8
-40655.2
32538.8
-37904.5
30327.7
-35291.1
28221.6
-32801.9
26214.6
-30430.6
24300.7
-28167.4
22478.2
-26010.4
20741.2
-23949.2
19087.4
-21977.6
17507.8
-20086.7
16000.2
-18272.5
14560.7
-16527
13184.5
-14843.1
11868.5
-13214.1
10608.1
-11631.8
9398.93
-10088.1
8237.06
-8574.88
7118.03
-7082.37
6036.75
-5600.35
4987.73
-4119.22
3964.26
-2624.98
2959.65
-1117.61
1960.25
449.018
994.968
1909.17
3454.98
1.27437e+06
-1.41754e+06
1.20998e+06
-1.34571e+06
1.14872e+06
-1.27757e+06
1.09055e+06
-1.21283e+06
1.03527e+06
-1.15121e+06
982770
-1.09258e+06
932894
-1.03694e+06
885510
-983984
840604
-933755
797844
-885897
757260
-840535
718777
-797422
682181
-756433
647391
-717510
614406
-680577
583100
-645479
553347
-612171
525089
-580461
498214
-550420
472749
-521877
448542
-494759
425569
-469003
403661
-444520
382976
-421374
363240
-399300
344550
-378371
326785
-358515
309939
-339654
293864
-321697
278639
-304725
264159
-288556
250418
-273236
237407
-258720
225019
-244861
213244
-231754
202036
-219307
191407
-207485
181307
-196273
171711
-185621
162599
-175519
153933
-165921
145706
-156822
137879
-148173
130444
-139977
123382
-132194
116670
-124809
110289
-117796
104223
-111141
98459.9
-104832
92976.8
-98836.8
87768
-93152
82816.5
-87752
78107.8
-82635.1
73627.1
-77770.2
69370.1
-73154.8
65320.9
-68777.5
61467.2
-64619.9
57813.5
-60676.9
54325
-56924.4
51014
-53366.6
47860.3
-49985.3
44859.6
-46777.8
42009.3
-43728.4
39299.5
-40828.2
36709.1
-38064.7
34253.7
-35449.1
31914.7
-32952.2
29686
-30573.2
27561.7
-28306.3
25543.7
-26149.4
23622
-24088.7
21790.9
-22118.2
20041.4
-20228
18376.2
-18421.5
16787.6
-16683.9
15272
-15011.5
13824.6
-13395.7
12441.6
-11831
11118.1
-10308.4
9850.45
-8820.48
8634.15
-7358.58
7463.8
-5912.02
6334.67
-4471.23
5241.07
-3025.61
4174.52
-1558.43
3127.3
-70.3855
2090.26
1486.06
1078.95
2920.48
4533.93
1.34446e+06
-1.34598e+06
1.27649e+06
-1.27774e+06
1.21194e+06
-1.21302e+06
1.15056e+06
-1.15145e+06
1.09223e+06
-1.09289e+06
1.0369e+06
-1.03725e+06
984262
-984304
934315
-934036
886824
-886264
841775
-840847
798946
-797706
758314
-756791
719704
-717823
683054
-680860
648233
-645755
615137
-612383
583698
-580732
553901
-550664
525568
-522088
498657
-494966
473075
-469178
448839
-444766
425822
-421503
403915
-399467
383101
-378487
363372
-358642
344626
-339770
326747
-321775
309878
-304829
293807
-288654
278530
-273279
264038
-258745
250225
-244908
237153
-231789
224721
-219322
212907
-207494
201692
-196270
191029
-185611
180898
-175489
171276
-165897
162130
-156776
153438
-148130
145190
-139926
137343
-132130
129882
-124733
122795
-117722
116061
-111062
109661
-104741
103579
-98749
97797.5
-93055.8
92295
-87649.6
87071.7
-82528.7
82103
-77666.4
77379
-73046.2
72891.5
-68667.2
68623.6
-64509.6
64562.7
-60559.1
60698.8
-56812.9
57028.2
-53253.9
53539.6
-49878
50221.8
-46667.5
47061.4
-43617.3
44055.7
-40722.7
41193.6
-37966
38480.3
-35351.4
35890.1
-32858.9
33424.8
-30486.9
31083.6
-28232.1
28855.8
-26078.5
26731.5
-24025.1
24708.9
-22066.1
22783.6
-20192.8
20952
-18396.4
19205.2
-16674.8
17540.7
-15019.4
15952.7
-13423.5
14438.1
-11881.1
12991.9
-10384.8
11609.9
-8926.34
10287.5
-7498.13
9019.85
-6090.9
7802.99
-4695.16
6630.58
-3298.82
5496.69
-1891.73
4389.85
-451.598
3308.5
1010.97
2236.17
2558.38
1183.51
3973.15
5717.44
1.411e+06
-1.27102e+06
1.33973e+06
-1.20647e+06
1.27191e+06
-1.1452e+06
1.20756e+06
-1.0871e+06
1.14639e+06
-1.03172e+06
1.08828e+06
-979137
1.03307e+06
-929095
980684
-881648
930840
-836421
883578
-793584
838669
-752797
795944
-714066
755446
-677325
716991
-642405
680424
-609189
645758
-577717
612795
-547770
581468
-519337
551703
-492322
523489
-466752
496674
-442363
471176
-419268
447000
-397328
424023
-376489
402191
-356655
381446
-337897
361771
-320095
343108
-303111
325304
-287025
308394
-271743
292427
-257312
277192
-243509
262711
-230427
248963
-218041
235908
-206267
223509
-195094
211726
-184488
200528
-174412
189900
-164862
179788
-155784
170192
-147179
161068
-139006
152395
-131253
144157
-123892
136334
-116910
128892
-110280
121820
-103990
115102
-98022.7
108711
-92358.4
102637
-86981.3
96868.4
-81881.2
91385.1
-77045.5
86168.6
-72450
81209.6
-68087.2
76495.5
-63953.2
72014.8
-60028.9
67752.6
-56296.9
63703.1
-52763.4
59849
-49399.9
56181.6
-46210.6
52694.5
-43180.4
49383.2
-40306
46228.8
-37568.3
43228.6
-34965.9
40374.4
-32497.2
37661.6
-30146.1
35080.5
-27905.7
32622.2
-25773.8
30282.4
-23738.7
28054.7
-21797.4
25933.2
-19944.6
23914.6
-18174.2
21991.3
-16473.1
20158.3
-14841.8
18411.4
-13272.5
16745.6
-11757.7
15156.2
-10291.7
13637.9
-8866.45
12186.8
-7475.31
10798
-6109.32
9466.37
-4759.24
8186.43
-3415.22
6952.2
-2064.58
5756.39
-695.926
4586.23
718.563
3441.52
2155.69
2295.38
3704.52
1168.73
5099.8
6886.17
1.47375e+06
-1.19265e+06
1.39932e+06
-1.13203e+06
1.32859e+06
-1.07448e+06
1.26133e+06
-1.01984e+06
1.19744e+06
-967830
1.13676e+06
-918454
1.07915e+06
-871486
1.02435e+06
-826846
972381
-784456
922932
-744135
876019
-705885
831497
-669544
789166
-634994
748931
-602170
710767
-571025
674463
-541412
640037
-513343
607342
-486643
576305
-461285
546764
-437211
518761
-414359
492134
-392641
466852
-372046
442829
-352465
420047
-333873
398380
-316230
377736
-299451
358214
-283589
339680
-268492
322042
-254105
305240
-240510
289345
-227614
274245
-215327
259886
-203682
246246
-192626
233284
-182132
220969
-172173
209273
-162716
198155
-153744
187595
-145224
177558
-137143
168027
-129475
158966
-122193
150358
-115283
142172
-108724
134402
-102511
127014
-96601.9
119991
-90999.3
113314
-85681.2
106974
-80641.3
100946
-75853.5
95212.1
-71311.6
89764.1
-67001.9
84590.1
-62913.2
79669.4
-59032.5
74983.4
-55342.9
70536.6
-51850.1
66301.5
-48528.3
62281.2
-45379.6
58458.4
-42387.7
54820.8
-39542.8
51357.7
-36842.9
48068.8
-34279.4
44943.9
-31841
41966
-29519.2
39134.8
-27314.9
36441.7
-25212.6
33878.6
-23210.7
31442.8
-21302.9
29124.1
-19478.7
26917.9
-17738.5
24814.8
-16071.1
22813.5
-14471.8
20908.2
-12936.5
19092.8
-11457.1
17362.6
-10027.5
15712.5
-8641.58
14138.6
-7292.52
12634.8
-5971.55
11196.9
-4671.43
9819.93
-3382.24
8498.05
-2093.34
7224.1
-790.631
5990.23
537.938
4789.94
1918.86
3615.73
3329.9
2434.31
4885.94
1267.95
6266.15
8154.12
1.53265e+06
-1.11128e+06
1.4552e+06
-1.05458e+06
1.38166e+06
-1.00094e+06
1.31174e+06
-949918
1.24533e+06
-901417
1.18224e+06
-855361
1.12231e+06
-811556
1.06537e+06
-769906
1.01125e+06
-730338
959879
-692767
911099
-657105
864725
-623169
820696
-590965
778902
-560376
739166
-531289
701472
-503718
665616
-477487
631572
-452599
599281
-428994
568581
-406512
539399
-385177
511731
-364974
485426
-345741
460459
-327498
436720
-310133
414157
-293667
392812
-278106
372466
-263244
353119
-249145
334771
-235757
317370
-223109
300794
-211037
285066
-199600
270119
-188735
255924
-178431
242440
-168648
229625
-159358
217451
-150542
205887
-142179
194898
-134235
184462
-126706
174537
-119550
165112
-112768
156151
-106322
147643
-100216
139552
-94420.2
131863
-88912.4
124560
-83697
117623
-78743.6
111023
-74041.3
104752
-69583
98789
-65348.3
93123.4
-61336.3
87738.2
-57528
82615.7
-53910
77752.3
-50479.6
73126
-47223.7
68727.3
-44129.6
64546.9
-41199.1
60572.1
-38413
56790.9
-35761.6
53196.6
-33248.6
49780.8
-30863.6
46531.7
-28592
43441.9
-26429.4
40501.4
-24374.4
37705.6
-22416.8
35050
-20555.2
32520
-18772.8
30113.5
-17072.3
27823.9
-15448.8
25645.7
-13892.9
23573.7
-12399.7
21600.7
-10963.5
19722.1
-9578.53
17933.4
-8238.7
16228.8
-6936.98
14603.4
-5667.22
13052.8
-4420.9
11571.8
-3190.45
10155
-1965.43
8796.56
-734.887
7488.78
517.152
6227.64
1799.08
5001.79
3144.71
3805.54
4526.15
2598.58
6092.89
1402.99
7461.74
9557.11
1.58741e+06
-1.02687e+06
1.50731e+06
-974476
1.43112e+06
-924746
1.35877e+06
-877561
1.28998e+06
-832630
1.22461e+06
-789996
1.16253e+06
-749477
1.10358e+06
-710955
1.04754e+06
-674297
994375
-639600
943783
-606512
895793
-575179
850186
-545358
806894
-517085
765749
-490145
726699
-464668
689558
-440346
654326
-417367
620841
-395509
589036
-374706
558850
-354991
530167
-336290
502882
-318456
477031
-301646
452460
-285562
429109
-270317
406913
-255909
385811
-242141
365802
-229136
346837
-216792
328760
-205032
311599
-193876
295298
-183299
279816
-173254
265106
-163720
251128
-154670
237851
-146082
225237
-137927
213250
-130192
201866
-122852
191046
-115886
180766
-109270
170992
-102994
161717
-97046.8
152897
-91396
144507
-86030.7
136547
-80952.2
128977
-76127
121781
-71547.3
114945
-67205.6
108443
-63080.8
102271
-59177.1
96398.4
-55463.3
90818.6
-51948.2
85514.3
-48605.7
80472.7
-45438
75678.5
-42429.5
71124.4
-39575.6
66792.8
-36867.6
62670.1
-34290.2
58756.5
-31848
55038.4
-29530.5
51495.4
-27320.5
48127.4
-25224
44931.2
-23233.2
41889.2
-21332.4
38992.7
-19520.3
36237
-17799.5
33621.8
-16157.6
31132.8
-14583.3
28764.1
-13080.1
26510.4
-11639.2
24365.2
-10254.6
22324.3
-8922.64
20381
-7635.27
18530.3
-6387.95
16767.3
-5174.01
15086.6
-3986.45
13483.3
-2817.59
11952.4
-1659.57
10486.9
-499.988
9081.5
670.546
7730.16
1868.49
6426.5
3102.74
5156.45
4414.76
3916.04
5766.56
2659.98
7348.95
1414.04
8707.69
10971.2
1.63814e+06
-939932
1.55542e+06
-891753
1.47688e+06
-846207
1.40216e+06
-802840
1.33125e+06
-761720
1.26382e+06
-722574
1.19973e+06
-685383
1.1389e+06
-650121
1.08113e+06
-616534
1.02621e+06
-584674
974085
-554388
924533
-525628
877468
-498293
832741
-472357
790306
-447710
750003
-424365
711706
-402048
675354
-381015
640786
-360941
607985
-341906
576799
-323805
547166
-306658
519063
-290353
492345
-274928
466943
-260160
442900
-246274
419962
-232971
398221
-220400
377579
-208494
357924
-197138
339282
-186390
321568
-176162
304748
-166479
288760
-157266
273573
-148534
259146
-140243
245438
-132374
232419
-124908
220044
-117817
208288
-111096
197115
-104713
186503
-98658.1
176421
-92912.2
166835
-87460.5
157724
-82285.7
149075
-77381.4
140850
-72727.6
133032
-68308.4
125604
-64119.7
118546
-60147.5
111843
-56377.9
105462
-52796.1
99406.4
-49407.6
93642.9
-46184.7
88168
-43130.8
82966.1
-40236.1
78019.5
-37482.9
73315.1
-34871.1
68842.6
-32395.1
64596.2
-30043.8
60559.4
-27811.2
56715.1
-25686.3
53066.1
-23671.5
49591.4
-21749.2
46290.9
-19932.7
43149.7
-18191.2
40167.5
-16538.1
37328.3
-14960.2
34625.9
-13455.3
32058.9
-12016.2
29616.2
-10637.4
27292.5
-9315.47
25082.6
-8044.71
22978.6
-6818.65
20976.4
-5633.05
19070
-4481.49
17254.1
-3358.15
15523.5
-2255.82
13873.2
-1167.31
12296.1
-82.4411
10788.3
1007.78
9343.51
2115.33
7954.73
3257.27
6614.06
4443.42
5306.2
5722.62
4027.79
7044.97
2729.25
8647.49
1438.49
9998.45
12409.6
1.68443e+06
-850420
1.59947e+06
-806789
1.51862e+06
-765356
1.44186e+06
-726088
1.3689e+06
-688756
1.29961e+06
-653280
1.23377e+06
-619543
1.17121e+06
-587561
1.11178e+06
-557104
1.05529e+06
-528184
1.00169e+06
-500793
950721
-474658
902346
-449918
856419
-426430
812764
-404055
771269
-382870
731927
-362706
694465
-343553
658933
-325410
625155
-308128
593137
-291787
562702
-276223
533748
-261399
506214
-247395
480143
-234089
455332
-221462
431804
-209444
409448
-198044
388181
-187227
367996
-176953
348805
-167199
330589
-157946
313275
-149165
296837
-140828
281208
-132904
266369
-125404
252264
-118269
238864
-111508
226136
-105089
214040
-99000.4
202546
-93218.9
191629
-87740.7
181251
-82534.5
171392
-77601.5
162028
-72921.6
153126
-68479.7
144665
-64266.4
136626
-60268.9
128985
-56479
121726
-52888.7
114824
-49475.8
108269
-46241.1
102033
-43171.1
96108.5
-40260.6
90482.4
-37504.6
85126.9
-34880.6
80041.9
-32397.9
75206.1
-30035.3
70614.2
-27803.2
66245.5
-25675.1
62088.6
-23654.3
58140.1
-21737.8
54386.3
-19917.8
50825.7
-18188.6
47430
-16537
44204.7
-14966
41140.8
-13474.2
38227.3
-12046.8
35456.2
-10684.1
32821.5
-9381.57
30317.5
-8133.45
27935.4
-6933.33
25669.8
-5779.08
23514.9
-4663.75
21464.6
-3582.85
19514
-2530.85
17657.5
-1501.66
15889.1
-487.374
14203.6
518.204
12596.7
1524.39
11062.3
2542.21
9595.14
3582.48
8186.66
4665.75
6830.9
5799.18
5510.99
7042.53
4224.19
8331.76
2915.38
9956.29
1615.87
11298
14025.5
1.72642e+06
-758770
1.63925e+06
-719615
1.55651e+06
-682621
1.47785e+06
-647423
1.40304e+06
-613952
1.33205e+06
-582285
1.26457e+06
-552068
1.20042e+06
-523411
1.13952e+06
-496199
1.08171e+06
-470379
1.02671e+06
-445789
974521
-422470
924972
-400368
877848
-379307
833091
-359298
790567
-340347
750197
-322335
711889
-305245
675446
-288967
640860
-273542
608004
-258931
576732
-244951
547146
-231813
518958
-219207
492227
-207358
466782
-196018
442636
-185297
419696
-175104
397898
-165429
377199
-156254
357540
-147540
338861
-139267
321108
-131412
304241
-123961
288227
-116889
273006
-110184
258548
-103811
244813
-97772.7
231759
-92034.8
219354
-86595.8
207574
-81438.8
196376
-76542.4
185736
-71894.9
175626
-67491.8
166019
-63314.9
156888
-59348.2
148213
-55591
139972
-52028.8
132141
-48647.6
124694
-45442
117617
-42398.1
110895
-39519.1
104502
-36778.2
98433.1
-34191.9
92655.2
-31726.8
87172.7
-29398
81953.3
-27178.5
76998.9
-25080.9
72287.3
-23091.6
67805.1
-21192.9
63550.7
-19400
59508.8
-17695.8
55661.2
-16070.1
52001.6
-14529.1
48529.8
-13065.1
45227
-11663.2
42084.5
-10331.6
39099.2
-9061.56
36260.8
-7845.66
33562.3
-6683.11
30995.5
-5566.65
28555.6
-4493.4
26235.3
-3458.85
24029.2
-2457.61
21930.5
-1484.15
19934
-534.333
18033.6
398.671
16224.5
1321.75
14500.7
2242.04
12857.3
3167.81
11288.8
4110.68
9788.96
5082.31
8350.74
6103.97
6966.61
7183.3
5619.49
8389.65
4307.17
9644.08
2965.47
11298
1637.07
12626.4
15662.6
1.76379e+06
-665151
1.67482e+06
-630643
1.59022e+06
-598024
1.50987e+06
-567074
1.43357e+06
-537648
1.36098e+06
-509695
1.29205e+06
-483144
1.22658e+06
-457935
1.16438e+06
-434006
1.10525e+06
-411250
1.04913e+06
-389664
995834
-369174
945119
-349653
897013
-331200
851302
-313587
807884
-296928
766676
-281127
727444
-266014
690252
-251775
654902
-238192
621292
-225320
589447
-213106
559104
-201470
530381
-190483
502987
-179965
477025
-170056
452344
-160617
428902
-151662
406639
-143166
385486
-135100
365386
-127440
346286
-120167
328153
-113280
310924
-106732
294553
-100519
278992
-94622.2
264211
-89030.8
250166
-83727.2
236826
-78695.2
224155
-73924
212106
-69390
200660
-65096.4
189785
-61019.8
179451
-57158.6
169629
-53492.7
160304
-50022.8
151434
-46720.9
143006
-43600.7
134998
-40639.6
127389
-37833.4
120156
-35164.6
113278
-32641.3
106753
-30253.5
100539
-27978.3
94640.1
-25827.4
89029.8
-23787.8
83701.3
-21849.9
78634
-20013.6
73815.9
-18273.5
69243.7
-16620.7
64891
-15047.3
60754.8
-13559.6
56822.6
-12138
53088.2
-10794.6
49530.7
-9507.57
46155.5
-8288.13
42946