/*--------------------------------*- C++ -*----------------------------------*\
  =========                 |
  \\      /  F ield         | OpenFOAM: The Open Source CFD Toolbox
   \\    /   O peration     | Website:  https://openfoam.org
    \\  /    A nd           | Version:  11
     \\/     M anipulation  |
\*---------------------------------------------------------------------------*/
FoamFile
{
    format      ascii;
    class       surfaceScalarField;
    location    "350";
    object      phi;
}
// * * * * * * * * * * * * * * * * * * * * * * * * * * * * * * * * * * * * * //

dimensions      [0 3 -1 0 0 0 0];

internalField   nonuniform List<scalar> 
62845
(
48154.9
-552791
554280
45156.2
-525585
528584
43292.3
-499129
500993
40942.9
-474201
476551
39020.9
-450388
452310
36998.4
-427830
429852
35202.3
-406345
408141
33427.2
-385952
387728
31774.4
-366554
368207
30177.4
-348142
349739
28686.6
-330651
332142
27270.9
-314037
315452
25905.4
-298232
299598
24637
-283258
284526
23399.4
-268993
270230
22261.7
-255483
256620
21153
-242609
243718
20101
-230416
231468
19121.3
-218831
219811
18183.9
-207808
208746
17274.6
-197349
198258
16436.9
-187437
188274
15627
-177984
178794
14859.5
-169035
169803
14134.3
-160531
161256
13436.6
-152442
153139
12781.2
-144781
145437
12153.2
-137492
138120
11567.3
-130587
131173
10979.6
-123994
124582
10448.4
-117770
118302
9929.91
-111843
112362
9438.63
-106227
106718
8974.54
-100877
101341
8523.05
-95808
96259.5
8098.69
-90990.5
91414.8
7686.91
-86424
86835.8
7302.25
-82079.3
82463.9
6930.18
-77954.4
78326.5
6573.65
-74040.5
74397
6232.71
-70324
70665
5907.4
-66794.6
67119.9
5594.91
-63441.7
63754.2
5296.78
-60259.2
60557.4
5010.19
-57235.4
57522
4736.72
-54364
54637.5
4472.14
-51636.2
51900.8
4220.92
-49047.4
49298.6
3978.87
-46585.8
46827.8
3747.57
-44249.6
44480.9
3525.72
-42028.7
42250.5
3313.47
-39919.8
40132.1
3108.07
-37914.3
38119.7
2914.01
-36011.9
36206
2727.09
-34202.4
34389.4
2547.45
-32481.4
32661.1
2376.67
-30848.8
31019.6
2211.98
-29295.8
29460.4
2056.4
-27819.4
27975
1907.15
-26416.8
26566
1764.34
-25083.5
25226.3
1628.07
-23815.2
23951.5
1498.43
-22610.4
22740.1
1375.5
-21464.8
21587.7
1257.92
-20375.4
20493
1147.21
-19339.4
19450.1
1040.56
-18353.9
18460.5
939.473
-17417.4
17518.5
845.431
-16528.5
16622.5
755.636
-15680
15769.8
670.143
-14874.8
14960.3
590.44
-14108.7
14188.4
516.557
-13381.6
13455.5
445.726
-12687.9
12758.7
380.854
-12029.1
12093.9
319.47
-11403.3
11464.7
263.065
-10807.9
10864.3
211.167
-10242.3
10294.2
163.864
-9705.04
9752.35
120.924
-9194.86
9237.8
83.1725
-8711.57
8749.32
48.9248
-8254.07
8288.32
22.7933
-7820.28
7846.41
-3.08993
-7420.72
7446.6
-12.9752
-7023.13
7033.01
-31.3891
-6718.18
6736.59
-18.3852
-6301.51
6288.51
-39.8118
-6282.92
6304.35
-5612.54
5572.73
75054.8
-549130
71214
-521744
67704.3
-495619
64292
-470789
61082.9
-447179
58000.4
-424747
55097.9
-403442
52327.3
-383182
49696.3
-363923
47206.1
-345652
44835.7
-328281
42580.2
-311781
40457.1
-296109
38420.6
-281221
36501
-267073
34668.3
-253650
32937.5
-240878
31278.9
-228758
29707.2
-217259
28222.4
-206323
26824.3
-195950
25469
-186081
24200.3
-176716
22974.2
-167809
21819.9
-159377
20737.4
-151359
19697.4
-143741
18699.7
-136494
17744.4
-129632
16860.5
-123110
16018.8
-116929
15204.7
-111029
14418.1
-105440
13688.2
-100147
12985.7
-95105.5
12325.2
-90330
11692.1
-85790.9
11086.4
-81473.6
10503.8
-77371.8
9954.5
-73491.1
9428.28
-69797.8
8926.69
-66293
8448.34
-62963.3
7990.38
-59801.3
7552.91
-56797.9
7136.03
-53947.2
6738.39
-51238.6
6357.19
-48666.2
5994.01
-46222.6
5646.08
-43901.7
5314.97
-41697.6
4997.91
-39602.8
4696.48
-37612.9
4406.47
-35721.9
4129.45
-33925.4
3866.99
-32219
3614.88
-30596.7
3374.66
-29055.5
3145.02
-27589.8
2926.04
-26197.8
2717.83
-24875.3
2519.04
-23616.4
2331.18
-22422.6
2150.03
-21283.6
1978.53
-20203.9
1816.74
-19177.6
1663.3
-18200.4
1516.82
-17270.9
1377.36
-16389
1244.99
-15547.6
1121.16
-14751
1004.49
-13992
892.223
-13269.3
787.235
-12582.9
689.567
-11931.4
597.467
-11311.2
511.151
-10721.6
430.726
-10161.8
356.04
-9630.36
287.046
-9125.87
224.122
-8648.65
166.569
-8196.52
116.694
-7770.4
70.0009
-7374.03
37.6374
-6990.76
0.798627
-6681.34
-5.79577
-6294.92
-45.8505
-6242.86
-5658.39
102038
-543796
96903.2
-516609
92044.3
-490760
87403.4
-466148
83018.2
-442794
78836.8
-420566
74860
-399466
71087.7
-379410
67505.7
-360341
64099.7
-342245
60869.5
-325050
57800.5
-308712
54892.5
-293201
52116.2
-278445
49486.1
-264443
46987.5
-251151
44620.3
-238511
42384.3
-226522
40235.5
-215110
38203.2
-204291
36258
-194005
34429
-184252
32686.9
-174974
31046.2
-166169
29463
-157794
27966.5
-149863
26542
-142317
25203.9
-135156
23923
-128351
22699.3
-121886
21518
-115748
20423
-109934
19384.9
-104402
18374.5
-99136.7
17435.6
-94166.6
16524.5
-89418.8
15655.5
-84922
14831.7
-80649.8
14057.5
-76597.6
13310.9
-72744.6
12602.3
-69089.2
11925.8
-65616.5
11280
-62317.6
10666.5
-59187.8
10081
-56212.4
9521.98
-53388.2
8989.67
-50706.3
8481.24
-48157.8
7996.79
-45738.1
7533.51
-43438.4
7091.52
-41255.6
6670.93
-39182.2
6268.97
-37210.9
5887.18
-35340.1
5521.36
-33559.6
5173.03
-31870.6
4842.32
-30266
4524.99
-28738.2
4224.04
-27288.8
3938.08
-25911.9
3662.92
-24600.1
3402.94
-23356.4
3153.91
-22173.5
2920.18
-21049.9
2696.11
-19979.8
2481.74
-18963.2
2278.57
-17997.2
2086.66
-17079
1903.18
-16205.5
1731.05
-15375.5
1567.43
-14587.4
1410.99
-13835.6
1264.59
-13122.9
1126.85
-12445.2
995.165
-11799.7
871.565
-11187.6
755.819
-10605.8
647.067
-10053.1
545.402
-9528.69
450.832
-9031.3
363.12
-8560.93
282.1
-8115.5
209.228
-7697.53
141.53
-7306.33
87.3147
-6936.55
31.5572
-6625.58
6.1836
-6269.54
-49.8818
-6186.8
-5708.27
128825
-536980
122332
-510116
116159
-484588
110313
-460302
104726
-437208
99448.1
-415287
94434
-394451
89654.8
-374630
85140
-355826
80830.9
-337936
76742.2
-320962
72873.8
-304844
69166.8
-289494
65679.9
-274958
62354.3
-261117
59204.4
-248001
56201
-235507
53343.7
-223665
50647.3
-212414
48082.3
-201726
45633.9
-191557
43316.6
-181935
41115.9
-172773
39016.8
-164070
37034
-155811
35138.2
-147967
33343.8
-140522
31636.1
-133448
30015.2
-126730
28466.2
-120337
27003.8
-114285
25613.3
-108544
24279.9
-103069
23018.4
-97875.2
21814
-92962.2
20681.2
-88286
19591
-83831.8
18557.8
-79616.7
17573
-75612.7
16637.9
-71809.5
15745.4
-68196.6
14895.4
-64766.5
14088
-61510.1
13315.9
-58415.7
12582.2
-55478.6
11884
-52689.9
11216.9
-50039.3
10582.6
-47523.5
9976.83
-45132.3
9401.05
-42862.6
8852.45
-40707
8328.29
-38658
7830.07
-36712.7
7353.57
-34863.6
6901.77
-33107.8
6468.99
-31437.9
6056.77
-29853.7
5666.64
-28348.1
5292.91
-26915.1
4937.11
-25556.1
4600.74
-24263.8
4278.15
-23033.8
3972.25
-21867.6
3678.83
-20756.5
3402.22
-19703.2
3139.62
-18700.6
2889.64
-17747.3
2650.92
-16840.2
2426.33
-15980.9
2211.65
-15160.8
2008.34
-14384.1
1816.43
-13643.7
1633.17
-12939.7
1459.98
-12272
1297.71
-11637.5
1143.94
-11033.8
998.713
-10460.6
862.123
-9916.49
733.828
-9400.4
613.586
-8911.05
501.577
-8448.93
397.218
-8011.14
301.724
-7602.04
212.897
-7217.5
137.075
-6860.73
62.5826
-6551.09
17.952
-6224.91
-53.6409
-6115.21
-5761.91
155247
-528723
147428
-502296
139977
-477136
132911
-453236
126213
-430509
119823
-408898
113757
-388386
108015
-368889
102553
-350364
97370.6
-332754
92452.9
-316044
87755.9
-300147
83323.5
-285062
79096.8
-270731
75090.4
-257111
71274.8
-244186
67664.6
-231897
64230.2
-220230
60956.9
-209141
57859.2
-198628
54922.4
-188620
52117
-179130
49457.7
-170113
46944.2
-161556
44547.2
-153414
42266.7
-145686
40102.6
-138358
38040
-131386
36079
-124769
34219.5
-118478
32461.4
-112527
30760.8
-106843
29176
-101484
27663.2
-96362.4
26207.9
-91506.9
24824.5
-86902.6
23527.5
-82534.8
22283.5
-78372.6
21101.1
-74430.4
19974.6
-70683
18902.5
-67124.5
17883.3
-63747.3
16912.7
-60539.6
15989.3
-57492.3
15108.8
-54598.1
14271.3
-51852.4
13473.8
-49241.8
12713.6
-46763.3
11990.7
-44409.4
11302.3
-42174.2
10645.6
-40050.3
10020.7
-38033.1
9424.68
-36116.7
8859.18
-34298.1
8318.48
-32567.1
7805.52
-30924.9
7316.08
-29364.3
6848.78
-27880.8
6406.57
-26472.9
5983.78
-25133.3
5581.9
-23861.9
5199.56
-22651.5
4835.39
-21503.5
4489.44
-20410.5
4160.32
-19374.1
3846.67
-18387
3549.92
-17450.5
3268.7
-16559
2998.81
-15711
2744.51
-14906.5
2502.99
-14142.6
2272.93
-13413.6
2057.08
-12723.8
1851.32
-12066.2
1656.54
-11442.7
1472.33
-10849.6
1298.62
-10286.9
1134.52
-9752.4
980.23
-9246.11
835.235
-8766.06
699.271
-8312.96
572.389
-7884.26
454.993
-7484.64
345.811
-7108.32
249.788
-6764.7
157.007
-6458.31
94.1108
-6162.02
8.18106
-6029.28
-5753.73
181273
-519087
172118
-493141
163435
-468453
155168
-444969
147328
-422670
139886
-401456
132814
-381313
126095
-362170
119700
-343970
113645
-326698
107884
-310283
102432
-294695
97230
-279860
92307.8
-265809
87620.9
-252424
83169
-239734
78937.5
-227666
74926
-216219
71120
-205335
67489.8
-194998
64050
-185180
60786
-175866
57682.8
-167010
54725.7
-158599
51914.7
-150603
49264.3
-143036
46715.8
-135810
44313.1
-128983
42026.7
-122483
39871.3
-116322
37788.3
-110444
35850.7
-104905
33970.8
-99604.2
32192.3
-94583.9
30515.2
-89829.8
28910.2
-85297.7
27377.4
-81002
25932.7
-76927.9
24551.4
-73049
23239.2
-69370.8
21991.9
-65877.1
20803.5
-62558.9
19672.6
-59408.7
18597.9
-56417.6
17574.9
-53575.2
16599.4
-50876.9
15672.9
-48315.3
14791
-45881.4
13951
-43569.4
13149.9
-41373.2
12389.4
-39289.7
11665.1
-37308.8
10974.1
-35425.8
10316.7
-33640.7
9692.77
-31943.2
9096.7
-30328.8
8529.98
-28797.6
7991.21
-27342
7477.61
-25959.3
6989.21
-24644.9
6523.23
-23395.9
6082.54
-22210.8
5661.49
-21082.4
5262.97
-20012
4881.34
-18992.5
4520.87
-18026.5
4175.94
-17105.6
3849.41
-16232.5
3539.86
-15401.5
3245.92
-14612.6
2964.83
-13861.5
2700.75
-13149.6
2449.54
-12472.6
2211.23
-11827.9
1984.75
-11216.2
1770.93
-10635.8
1568.71
-10084.7
1377.74
-9561.43
1197.53
-9065.9
1027.82
-8596.35
868.331
-8153.47
718.867
-7734.79
579.767
-7345.54
449.937
-6978.49
333.463
-6648.23
222.327
-6347.17
139.682
-6079.37
39.1253
-5928.72
-5714.6
206796
-508105
196340
-482685
186414
-458527
177006
-435562
168042
-413705
159550
-392964
151471
-373234
143805
-354504
136537
-336702
129609
-319770
123049
-303723
116798
-288444
110871
-273934
105239
-260177
99901.2
-247086
94813.3
-234646
89990
-222842
85401.8
-211630
81048.4
-200981
76915.2
-190865
73002
-181267
69264.6
-172128
65717.7
-163463
62346.5
-155228
59150.8
-147407
56101.3
-139986
53212.5
-132921
50469.6
-126240
47858
-119871
45377.6
-113842
43028.3
-108095
40780.7
-102658
38649.5
-97473
36634.5
-92568.9
34706.5
-87901.8
32880.1
-83471.3
31142.1
-79264
29483.7
-75269.5
27912.1
-71477.5
26417.2
-67875.9
24994.6
-64454.5
23641.3
-61205.6
22354.5
-58121.9
21129.8
-55192.9
19964.4
-52409.7
18856.7
-49769.2
17801.1
-47259.7
16797.5
-44877.9
15841.8
-42613.6
14933.8
-40465.2
14067.9
-38423.9
13245.6
-36486.5
12462.6
-34642.8
11717.5
-32895.6
11007.5
-31233.2
10332.6
-29653.9
9689.96
-28155
9078.29
-26730.4
8496.14
-25377.1
7943.57
-24092.3
7417.75
-22870.1
6915.88
-21708.9
6439.4
-20605.9
5986.92
-19559.5
5557.04
-18562.6
5145.56
-17615
4758.12
-16718.2
4387.72
-15862.1
4037.14
-15050.9
3702.25
-14277.7
3387.17
-13546.4
3085.01
-12847.4
2799.91
-12187.5
2528.99
-11557
2272.92
-10960.1
2030.07
-10392.9
1799.95
-9854.54
1582.56
-9344.04
1376.89
-8860.23
1182.87
-8402.34
1000.07
-7970.67
828.332
-7563.05
667.506
-7184.71
517.25
-6828.24
380.113
-6511.09
250.147
-6217.2
147.039
-5976.26
31.9359
-5813.62
-5682.67
231777
-495796
220066
-470974
208943
-447404
198368
-424987
188339
-403676
178812
-383436
169756
-364179
161159
-345906
152989
-328532
145233
-312013
137859
-296350
130869
-281454
124232
-267297
117905
-253850
111902
-241083
106222
-228966
100807
-217427
95671.7
-206495
90785.9
-196096
86149.8
-186229
81734
-176851
77552.8
-167947
73577
-159487
69791.7
-151443
66211.4
-143827
62792.2
-136567
59563.2
-129692
56480.3
-123158
53558.2
-116949
50782
-111066
48137.2
-105450
45623.5
-100144
43241
-95090.5
40975
-90302.9
38810.8
-85737.6
36763
-81423.4
34815.4
-77316.4
32963.6
-73417.8
31201.9
-69715.7
29525.7
-66199.8
27933.7
-62862.4
26418.4
-59690.4
24978.6
-56682.1
23606.9
-53821.2
22304.7
-51107.6
21064.9
-48529.4
19884.5
-46079.3
18762.1
-43755.5
17696.4
-41547.9
16680
-39448.9
15714.5
-37458.4
14792.8
-35564.7
13919.1
-33769.1
13086.3
-32062.8
12294.5
-30441.3
11542.1
-28901.6
10825.1
-27437.9
10143.4
-26048.6
9494.16
-24727.9
8877.42
-23475.6
8290.36
-22283
7731.6
-21150.2
7201.13
-20075.5
6696.15
-19054.5
6215.27
-18081.7
5759.88
-17159.6
5325.79
-16284.1
4914.38
-15450.7
4521.49
-14658
4151.25
-13907.4
3796.77
-13191.9
3462.16
-12512.8
3143.26
-11868.6
2841.88
-11255.6
2555.53
-10673.8
2284.1
-10121.5
2026.98
-9597.42
1783.34
-9100.4
1553.08
-8629.97
1335.35
-8184.6
1129.91
-7765.24
936.41
-7369.55
754.504
-7002.81
583.902
-6657.63
426.569
-6353.76
278.096
-6068.73
153.836
-5852
24.6617
-5684.44
-5658.01
256113
-482176
243179
-458041
230891
-435116
219223
-413318
208145
-392598
197598
-372889
187612
-354193
178098
-336393
169071
-319505
160516
-303458
152359
-288193
144630
-273725
137284
-259951
130306
-246872
123681
-234458
117381
-222666
111404
-211450
105721
-200812
100332
-190707
95193.3
-181090
90333.6
-171991
85694.1
-163308
81304.1
-155097
77134.1
-147273
73154.8
-139848
69395.2
-132807
65811.4
-126108
62417.8
-119764
59170.6
-113702
56098.8
-107994
53187.7
-102539
50408
-97364.6
47759.7
-92442.2
45257.3
-87800.5
42886
-83366.4
40613.9
-79151.2
38461.1
-75163.6
36414.6
-71371.3
34469.9
-67771
32619.7
-64349.6
30861.2
-61103.8
29189.8
-58019
27598.3
-55090.6
26086.8
-52309.6
24647.9
-49668.7
23278.7
-47160.2
21979.3
-44779.9
20741
-42517.2
19563.8
-40370.6
18444.8
-38329.9
17379.7
-36393.3
16367.1
-34552.1
15402.7
-32804.7
14486.5
-31146.6
13614.3
-29569
12783.1
-28070.5
11994.4
-26649.3
11244.1
-25298.3
10530.6
-24014.4
9851.11
-22796.1
9205.67
-21637.6
8591.42
-20535.9
8006.99
-19491
7450.95
-18498.5
6924.69
-17555.4
6422.62
-16657.6
5944.7
-15806.1
5490.95
-14996.9
5061.34
-14228.4
4651.69
-13497.8
4263.38
-12803.6
3894.98
-12144.4
3543.77
-11517.4
3211.2
-10923
2895.91
-10358.5
2596.63
-9822.21
2313.12
-9313.91
2044.54
-8831.81
1790.12
-8375.55
1549.59
-7944.08
1322.24
-7537.89
1107.72
-7155.03
905.769
-6800.86
716.125
-6467.99
540.108
-6177.74
374.219
-5902.84
231.746
-5709.53
87.3752
-5540.07
-5570.63
279807
-467305
265681
-443915
252258
-421694
239498
-400559
227387
-380487
215881
-361383
204950
-343261
194579
-326022
184710
-309636
175342
-294090
166461
-279311
157992
-265256
149966
-251925
142352
-239258
135107
-227213
128215
-215774
121691
-204926
115476
-194597
109584
-184815
103987
-175493
98654.2
-166659
93600.5
-158254
88796.5
-150293
84227.3
-142703
79907.5
-135528
75778.5
-128678
71869.3
-122199
68135.9
-116031
64622.1
-110188
61254.8
-104627
58062.9
-99346.9
55032
-94333.6
52161.7
-89571.9
49408.4
-85047.1
46801
-80759
44339.5
-76689.8
41987.4
-72811.6
39753.5
-69137.3
37627.4
-65644.9
35607.6
-62329.8
33686.9
-59183.1
31860.8
-56193
30125
-53354.8
28475.1
-50659.7
26905.2
-48098.8
25414
-45669
23994.1
-43360
22644.2
-41167.3
21359.8
-39086.3
20139.6
-37109.7
18977.8
-35231.5
17872.9
-33447.2
16823.5
-31755.3
15823.9
-30147
14872.7
-28617.8
13969.8
-27167.6
13111
-25790.5
12292.1
-24479.3
11515.7
-23238
10774.9
-22055.3
10071.1
-20933.8
9404.24
-19869.1
8768.67
-18855.5
8162.99
-17892.8
7588.6
-16981.1
7042.66
-16111.6
6523.77
-15287.3
6030.49
-14503.7
5561.43
-13759.4
5115.19
-13051.6
4691.72
-12380.1
4289.61
-11742.3
3908.85
-11136.6
3546.65
-10560.8
3202.84
-10014.7
2876.88
-9496.25
2567.51
-9004.54
2274.43
-8538.74
1996.69
-8097.81
1733.7
-7681.09
1484.71
-7288.9
1249.71
-6920.03
1027.91
-6579.05
819.138
-6259.22
624.152
-5982.76
440.721
-5719.41
280.248
-5549.06
118.813
-5378.64
-5451.82
302742
-451227
287468
-428641
272941
-407166
259150
-386768
246036
-367373
233585
-348932
221753
-331430
210512
-314780
199860
-298984
189709
-283940
180075
-269677
170941
-256123
162250
-243233
153986
-230994
146149
-219376
138710
-208335
131639
-197855
124922
-187879
118528
-178421
112472
-169437
106710
-160897
101243
-152786
96024.7
-145076
91100.4
-137779
86396.5
-130824
81942
-124224
77707.5
-117964
73692.9
-112016
69854.3
-106349
66220.7
-100993
62762.8
-95889.1
59480.6
-91051.4
56373.9
-86465.2
53413.5
-82086.7
50597.7
-77943.3
47915
-74007
45371
-70267.6
42952.6
-66718.9
40653.8
-63346.1
38470.3
-60146.3
36391.8
-57104.7
34418.4
-54219.5
32539.7
-51476.1
30754.4
-48874.4
29058
-46402.4
27444.7
-44055.7
25910.2
-41825.5
24451.5
-39708.6
23064.4
-37699.1
21744.4
-35789.7
20490.2
-33977.2
19297.4
-32254.4
18163
-30621
17082.9
-29066.9
16057.1
-27591.9
15081.1
-26191.6
14152.2
-24861.6
13271.7
-23598.8
12431.2
-22397.5
11633.4
-21257.5
10874.1
-20174.5
10151.9
-19146.8
9466.68
-18170.3
8815.65
-17241.8
8193.21
-16358.6
7604.92
-15523.3
7045.14
-14727.5
6512.46
-13971
6005.47
-13252.4
5525.5
-12571.6
5069.75
-11924.4
4636.79
-11309.3
4224.03
-10723.9
3833.16
-10170
3461.97
-9643.48
3109.86
-9144.15
2775.72
-8670.4
2458.83
-8221.84
2158.36
-7797.35
1873.62
-7396.35
1604.03
-7019.31
1348.83
-6664.83
1107.51
-6337.73
879.957
-6031.67
666.271
-5769.07
464.779
-5517.92
284.642
-5368.92
107.001
-5201
-5344.82
324891
-433957
308484
-412234
292912
-391594
278104
-371960
264032
-353301
250682
-335581
237980
-318728
225926
-302727
214463
-287520
203589
-273066
193245
-259334
183432
-246310
174106
-233907
165251
-222139
156838
-210963
148837
-200334
141235
-190252
134029
-180674
127177
-171569
120663
-162923
114472
-154707
108605
-146919
103032
-139503
97723.9
-132471
92679.8
-125780
87900
-119444
83355
-113419
79015.5
-107676
74925.1
-102259
71025.4
-97093.5
67316.3
-92179.9
63797.5
-87532.6
60439.9
-83107.6
57263.7
-78910.5
54241.1
-74920.7
51367.8
-71133.7
48639.2
-67539
46043.6
-64123.3
43576.6
-60879.2
41232.4
-57802.1
39003.5
-54875.8
36884.1
-52100.1
34872.8
-49464.8
32957.9
-46959.4
31136.4
-44580.9
29405.4
-42324.8
27760.6
-40180.7
26196.2
-38144.2
24709.2
-36212.1
23295.2
-34375.8
21948.6
-32630.6
20670.7
-30976.5
19454.4
-29404.7
18298.1
-27910.6
17199.1
-26492.9
16154.3
-25146.9
15159.6
-23866.9
14213.5
-22652.7
13314.4
-21498.5
12461.2
-20404.2
11649.3
-19362.6
10875.9
-18373.5
10141.2
-17435.5
9442.15
-16542.8
8780.12
-15696.6
8148.15
-14891.4
7547.62
-14126.9
6978.42
-13401.8
6437.75
-12711.7
5922.81
-12056.6
5433.55
-11435.1
4969.1
-10844.9
4528.83
-10283.6
4110.11
-9751.26
3712.76
-9246.12
3335.37
-8766.76
2977.31
-8312.34
2637.61
-7882.14
2315.38
-7475.11
2009.78
-7090.75
1720.11
-6729.64
1445.83
-6390.55
1186
-6077.9
940.288
-5785.96
708.281
-5537.07
489.595
-5299.23
288.946
-5168.27
95.2074
-5007.26
-5249.61
346195
-415583
328729
-394767
312112
-374977
296347
-356195
281362
-338316
267127
-321347
253600
-305200
240764
-289891
228548
-275304
216965
-261483
205958
-248326
195480
-235833
185548
-223975
176117
-212708
167143
-201989
158640
-191831
150549
-182162
142856
-172981
135545
-164258
128617
-155995
122028
-148117
115762
-140653
109819
-133560
104171
-126822
98801.1
-120410
93696.1
-114339
88855.3
-108579
84263.9
-103085
79878.2
-97873.2
75712.4
-92927.7
71781.2
-88248.7
68025.9
-83777.3
64455.3
-79537
61064.9
-75520.1
57844.3
-71700.1
54784.7
-68074.1
51875.9
-64630.1
49110.5
-61357.8
46485.4
-58254.1
43986.2
-55302.8
41614.1
-52503.7
39357.6
-49843.6
37212.1
-47319.3
35173.3
-44920.7
33236.9
-42644.5
31394
-40481.9
29641.8
-38428.5
27977.2
-36479.6
26393.2
-34628.1
24886.7
-32869.3
23456.3
-31200.2
22096.2
-29616.4
20802.1
-28110.5
19571
-26679.6
18401.6
-25323.4
17289.4
-24034.7
16231.7
-22809.1
15226.9
-21647.9
14270.8
-20542.4
13360.5
-19493.9
12496
-18498.1
11675.9
-17553.3
10894.3
-16653.9
10151.3
-15799.8
9445.56
-14990.8
8775.48
-14221.3
8138.24
-13489.7
7532.48
-12796
6956.71
-12135.9
6409.51
-11509.4
5889.44
-10915
5396.02
-10351.5
4927.14
-9814.73
4481.79
-9305.91
4058.94
-8823.27
3657.43
-8365.25
3276.53
-7931.45
2914.85
-7520.46
2571.72
-7131.99
2246.33
-6765.36
1937.61
-6420.91
1645
-6097.94
1367.6
-5800.5
1105.34
-5523.7
857.227
-5288.95
623.275
-5065.28
407.248
-4952.24
199.542
-4799.55
-5050.07
366582
-396106
348086
-376271
330513
-357404
313806
-339488
297937
-322447
282863
-306272
268554
-290891
254937
-276275
242027
-262394
229737
-249192
218080
-236669
207012
-224765
196489
-213452
186482
-202701
176991
-192497
167956
-182796
159393
-173598
151256
-164844
143532
-156534
136175
-148639
129201
-141143
122566
-134018
116268
-127263
110280
-120834
104600
-114730
99198.7
-108938
94047.7
-103428
89175.6
-98213.1
84553
-93250.6
80150.5
-88525.3
75953.6
-84051.7
71983.9
-79807.6
68212.1
-75765.2
64623.6
-71931.5
61213.8
-68290.4
57972.5
-64832.8
54892.4
-61550
51965.9
-58431.4
49183
-55471.2
46539
-52658.9
44025.3
-49990
41637.5
-47455.7
39366.7
-45048.6
37208.6
-42762.5
35155.8
-40591.7
33206.8
-38533
31353
-36574.7
29590
-34716.6
27913.3
-32951.4
26321.6
-31277.5
24807.5
-29686.1
23366.7
-28175.6
21997.7
-26741.6
20697.7
-25379.6
19460.9
-24086.6
18282.9
-22856.7
17165.1
-21691.4
16100.4
-20583.2
15090.2
-19532.2
14130.1
-18533.9
13215.9
-17583.9
12346.2
-16683.6
11520.8
-15828.5
10736.9
-15015.9
9990.26
-14244.2
9280.82
-13511.8
8607.16
-12816
7966.4
-12155.3
7358.48
-11528
6780.57
-10931.5
6231.79
-10366.3
5709.35
-9829.01
5213.55
-9318.94
4742.83
-8835.19
4295.75
-8376.19
3871.29
-7940.79
3468.14
-7528.29
3085.65
-7137.97
2722.41
-6768.75
2377.66
-6420.61
2050.55
-6093.81
1740.2
-5787.59
1445.46
-5505.76
1166.23
-5244.47
901.17
-5023.89
650.559
-4814.67
416.501
-4718.19
190.91
-4573.96
-4859.16
386023
-375628
366527
-356775
348027
-338904
330437
-321898
313729
-305739
297859
-290403
282784
-275816
268460
-261951
254842
-248777
241917
-236267
229641
-224392
217968
-213092
206884
-202369
196361
-192178
186352
-182489
176860
-173303
167824
-164562
159244
-156264
151106
-148396
143365
-140898
136007
-133785
129031
-127042
122394
-120625
116095
-114534
110104
-108740
104408
-103242
99019.7
-98039.5
93881.5
-93074.9
88993
-88362.1
84354.1
-83886.4
79957.2
-79654.9
75767.3
-75617.7
71790.1
-71788
68009.4
-68150.8
64417.9
-64698.8
61005.2
-61420.1
57761
-58305.8
54678
-55348.4
51748.8
-52542
48964.7
-49874.7
46319.6
-47345
43803.4
-44939.6
41413.2
-42658.3
39140.1
-40489.4
36981.1
-38432.8
34927.7
-36479.5
32975.3
-34622.3
31121
-32862.3
29359
-31189.4
27682
-29600.5
26088.6
-28092.7
24572.9
-26659.9
23132
-25300.8
21763.1
-24010.7
20460.4
-22783.8
19223.7
-21620.1
18047.4
-20515.1
16928.6
-19464.4
15865.8
-18469.3
14854.6
-17522.7
13893.7
-16622.9
12980.1
-15770
12112.3
-14960.8
11287.7
-14191.2
10503.1
-13459.6
9757.23
-12766
9048.61
-12107.4
8375.71
-11482.4
7735.81
-10888.1
7127.66
-10323.4
6549.83
-9788.42
6001.13
-9280.31
5480.1
-8797.91
4985.04
-8340.13
4514.91
-7906.06
4068.5
-7494.38
3644.66
-7104.46
3242.06
-6735.37
2859.91
-6386.59
2497.14
-6057.84
2152.5
-5749.17
1825.38
-5460.47
1514.43
-5194.81
1219.29
-4949.32
938.101
-4742.71
671.631
-4548.2
418.805
-4465.36
176.919
-4332.08
-4682.24
404430
-354135
384036
-336382
364639
-319506
346225
-303484
328722
-288237
312087
-273767
296290
-260019
281288
-246948
267022
-234511
253492
-222738
240611
-211510
228392
-200874
216777
-190754
205752
-181152
195271
-172008
185321
-163353
175856
-155097
166878
-147286
158341
-139859
150230
-132788
142532
-126087
135217
-119726
128254
-113663
121659
-107939
115388
-102468
109425
-97279
103756
-92370.8
98366.8
-87685.3
93256.3
-83251.6
88413
-79043.1
83791.5
-75033.4
79404.9
-71231.1
75236.9
-67620
71277.3
-64191.2
67514.2
-60935.8
63937.4
-57843.3
60539.5
-54907.9
57310.2
-52119.1
54240.6
-49472.4
51324.9
-46959
48552.9
-44572.9
45918.6
-42305.2
43413.2
-40152.9
41035.3
-38111.5
38773.1
-36170.6
36620.9
-34327.3
34578.5
-32579.9
32635.9
-30919.6
30788.5
-29342
29033.5
-27845.5
27363.6
-26422.8
25778.8
-25075.1
24270.4
-23792.3
22836.9
-22577.1
21473.9
-21420.9
20178.6
-20324.8
18946.6
-19283.1
17776.4
-18294.3
16663.8
-17356.7
15604.4
-16463.3
14599.5
-15618.1
13644.9
-14815.3
12734.9
-14050.8
11870.8
-13327.1
11051.1
-12639.9
10271.5
-11986.5
9529.37
-11365.2
8824.49
-10777.5
8155.44
-10219.1
7520.07
-9688.01
6915.9
-9184.26
6341.9
-8706.31
5796.48
-8252.49
5278.72
-7822.36
4786.75
-7414.09
4319.52
-7027.16
3875.84
-6660.77
3454.52
-6314.04
3054.45
-5986.53
2674.57
-5677.96
2313.62
-5388.22
1970.68
-5117.53
1644.71
-4868.84
1334.93
-4639.54
1039.31
-4447.09
758.881
-4267.77
490.538
-4197.02
235.007
-4076.54
-4447.23
421818
-331760
400527
-315091
380321
-299300
361098
-284261
342859
-269998
325517
-256425
309028
-243530
293378
-231298
278523
-219656
264389
-208604
250976
-198098
238227
-188124
226110
-178638
214598
-169639
203674
-161085
193295
-152974
183432
-145234
174069
-137923
165163
-130953
156713
-124338
148675
-118049
141034
-112086
133791
-106419
126900
-101049
120348
-95916.2
114148
-91079.4
108228
-86450.7
102617
-82073.8
97290.4
-77925
92216.6
-73969.3
87402.7
-70219.6
82826.8
-66655.1
78481.3
-63274.6
74351.5
-60061.4
70425.8
-57010
66696.7
-54114.2
63152.3
-51363.6
59785.5
-48752.2
56584.4
-46271.3
53543.1
-43917.7
50651.4
-41681.2
47904.8
-39558.6
45294.5
-37542.7
42811.9
-35628.8
40452.3
-33811.1
38211.5
-32086.5
36080.7
-30449.1
34054.1
-28893
32128.6
-27416.6
30298.6
-26015.5
28560.9
-24685.2
26905.6
-23419.8
25335.3
-22222.1
23840.1
-21081.9
22419.9
-20000.6
21070.2
-18975.2
19786.9
-17999.7
18566.9
-17074.3
17405.9
-16195.8
16305.4
-15362.7
15258
-14570.7
14261.1
-13818.4
13315.8
-13105.5
12415.2
-12426.4
11560.4
-11785.2
10747.4
-11173.4
9975.84
-10593.7
9241.67
-10043.3
8543.95
-9521.36
7881.42
-9025.48
7251.98
-8554.82
6653.87
-8108.2
6086.02
-7684.64
5546.31
-7282.66
5033.8
-6901.58
4547.02
-6540.38
4084.63
-6198.38
3645.56
-5874.97
3228.55
-5569.51
2832.14
-5281.55
2455.76
-5011.84
2097.82
-4759.59
1757.23
-4528.26
1433.36
-4315.66
1123.69
-4137.43
829.425
-3973.5
545.875
-3913.47
275.723
-3806.39
-4171.51
438070
-308487
415985
-293006
394970
-278285
375026
-264317
356066
-251038
338062
-238421
320955
-226423
304700
-215044
289256
-204211
274577
-193925
260648
-184170
247397
-174873
234824
-166064
222883
-157699
211532
-149733
200740
-142182
190507
-135002
180761
-128176
171515
-121706
162725
-115548
154391
-109715
146470
-104164
138930
-98880.1
131759
-93877.7
124970
-89127.2
118505
-84614.1
112377
-80323.3
106553
-76249.2
101008
-72379.8
95744.5
-68706.1
90742.8
-65217.8
85992.2
-61904.6
81476.6
-58759
77185.8
-55770.6
73109.1
-52933.4
69236.5
-50241.5
65554.7
-47681.7
62056.2
-45253.8
58732.4
-42947.5
55572.9
-40758.2
52570.4
-38678.7
49717.5
-36705.7
47005.3
-34830.6
44428.2
-33051.6
41980.1
-31363
39652.3
-29758.7
37438.9
-28235.7
35335.6
-26789.7
33336.6
-25417.5
31437.3
-24116.2
29630.5
-22878.4
27914.8
-21704.1
26281.5
-20588.8
24730.5
-19530.9
23257.4
-18527.5
21855
-17572.8
20523.3
-16668
19256.5
-15807.4
18054.5
-14993.7
16910.1
-14218.4
15821.9
-13482.6
14788.5
-12784.9
13805.4
-12122.4
12873.9
-11495
11985.8
-10897
11142.2
-10329.8
10341.6
-9793.15
9580.65
-9282.36
8857.18
-8797.89
8169.85
-8338.15
7516.89
-7901.85
6896.57
-7487.88
6307.29
-7095.36
5747.56
-6722.93
5215.78
-6369.79
4710.85
-6035.46
4231.3
-5718.83
3775.63
-5419.3
3342.72
-5136.61
2931.66
-4870.49
2540.62
-4620.8
2168.92
-4387.89
1814.8
-4174.14
1477.51
-3978.37
1154.46
-3814.38
846.228
-3665.27
546.331
-3613.57
260.319
-3520.38
-3911.19
453216
-284434
430337
-270127
408630
-256579
387995
-243681
368373
-231416
349751
-219799
332054
-208727
315226
-198216
299251
-188236
284086
-178759
269656
-169740
255963
-161180
242962
-153063
230593
-145331
218844
-137984
207683
-131022
197081
-124400
187024
-118120
177453
-112135
168368
-106463
159739
-101086
151522
-95947.1
143746
-91104.4
136338
-86469.7
129313
-82101.6
122625
-77926.7
116275
-73972.8
110242
-70216.1
104510
-66648
99064.6
-63260.9
93891.2
-60044.4
88975
-56988.3
84302.5
-54086.5
79864.9
-51333
75647.7
-48716.2
71639
-46232.8
67831.4
-43874.1
64213.1
-41635.6
60773.9
-39508.3
57505
-37489.3
54400.4
-35574
51448.4
-33753.7
48643.1
-32025.3
45977.3
-30385.8
43443.5
-28829.2
41034.6
-27349.7
38745.9
-25947.1
36571.8
-24615.5
34504.8
-23350.6
32539.2
-22150.6
30670.6
-21009.8
28896
-19929.5
27208.2
-18901
25605.7
-17928.4
24079.8
-17001.6
22631.8
-16124.8
21253.1
-15289.4
19945.2
-14499.5
18700.7
-13749.3
17516.8
-13034.5
16393.5
-12359.2
15326.3
-11717.7
14311
-11107.1
13344.7
-10528.7
12428.6
-9981.02
11557.5
-9458.68
10729
-8964.64
9942.16
-8495.5
9194.65
-8050.38
8484.31
-7627.81
7809.55
-7227.09
7168.59
-6846.92
6559.54
-6486.31
5981.06
-6144.45
5431.67
-5820.4
4909.74
-5513.53
4414.05
-5223.14
3943.2
-4948.45
3495.82
-4689.22
3070.61
-4445.28
2666.43
-4216.62
2281.97
-4003.43
1915.72
-3807.89
1566.56
-3629.21
1231.67
-3479.49
911.84
-3345.44
598.498
-3300.23
299.768
-3221.65
-3611.42
467153
-259646
443597
-246571
421199
-234181
399931
-222414
379736
-211221
360525
-200588
342284
-190486
324955
-180887
308494
-171775
292843
-163108
277986
-154883
263880
-147073
250451
-139634
237714
-132594
225610
-125880
214110
-119521
203198
-113489
192802
-107723
182950
-102284
173584
-97096.6
164674
-92176.3
156235
-87508.1
148194
-83062.7
140578
-78854.6
133314
-74836.6
126428
-71041.1
119883
-67428.3
113665
-63998
107759
-60741.6
102146
-57648.4
96811.7
-54709.7
91744.3
-51920.9
86929.7
-49271.9
82354.5
-46757.9
78008.4
-44370.1
73876.7
-42101.2
69950.7
-39948
66219.9
-37904.7
62675.5
-35963.9
59308.8
-34122.6
56106.5
-32371.8
53064.2
-30711.5
50173.1
-29134.3
47425.9
-27638.6
44813.8
-26217.1
42333.8
-24869.7
39974.2
-23587.5
37732.2
-22373.5
35601.7
-21220.1
33577.1
-20126
31652.3
-19085.1
29821.8
-18098.9
28085.2
-17164.4
26431.2
-16274.3
24861
-15431.4
23367.5
-14631.3
21949
-13871
20600
-13150.4
19317.3
-12466.6
18101
-11818.1
16942.5
-11200.7
15841.6
-10616.9
14795.5
-10061
13802.7
-9535.91
12856.7
-9034.99
11959.6
-8561.65
11106.8
-8111.81
10296.4
-7685.1
9526.38
-7280.35
8794.85
-6896.28
8099.77
-6532.01
7439.5
-6186.65
6812.3
-5859.11
6216.42
-5548.57
5650.6
-5254.59
5112.98
-4975.91
4602.3
-4712.46
4117.18
-4463.32
3656.3
-4228.35
3218.13
-4007.11
2801.63
-3800.12
2405.19
-3606.98
2027.29
-3429.99
1666.85
-3268.77