/*--------------------------------*- C++ -*----------------------------------*\
  =========                 |
  \\      /  F ield         | OpenFOAM: The Open Source CFD Toolbox
   \\    /   O peration     | Website:  https://openfoam.org
    \\  /    A nd           | Version:  11
     \\/     M anipulation  |
\*---------------------------------------------------------------------------*/
FoamFile
{
    format      ascii;
    class       volVectorField;
    location    "350";
    object      U;
}
// * * * * * * * * * * * * * * * * * * * * * * * * * * * * * * * * * * * * * //

dimensions      [0 1 -1 0 0 0 0];

internalField   nonuniform List<vector> 
31595
(
(7.33712 -0.0278133 -4.38489e-20)
(7.35494 -0.0186839 3.47954e-20)
(7.34524 -0.0188187 8.75013e-20)
(7.35008 -0.0193021 9.43425e-20)
(7.34597 -0.0191427 0)
(7.34691 -0.0189919 0)
(7.34401 -0.0190266 0)
(7.34338 -0.0189082 8.0977e-20)
(7.34101 -0.0188235 4.12453e-21)
(7.33957 -0.0186705 0)
(7.33736 -0.0185116 0)
(7.33551 -0.0182999 6.24494e-20)
(7.3333 -0.0180684 -6.57518e-20)
(7.33121 -0.0177955 7.6584e-20)
(7.32895 -0.0174968 -8.06336e-20)
(7.32672 -0.0171637 9.07215e-20)
(7.3244 -0.0168042 0)
(7.32207 -0.0164159 -1.12975e-19)
(7.3197 -0.0160039 2.39844e-19)
(7.31731 -0.0155693 -6.80299e-20)
(7.31489 -0.0151167 7.1625e-20)
(7.31246 -0.0146497 0)
(7.31002 -0.0141739 0)
(7.30758 -0.0136951 9.71345e-20)
(7.30515 -0.0132207 -4.93465e-20)
(7.30273 -0.0127593 1.8723e-21)
(7.30032 -0.0123206 -1.2166e-19)
(7.29794 -0.0119163 -6.79305e-20)
(7.29559 -0.0115596 1.45141e-19)
(7.29328 -0.0112656 -1.56002e-19)
(7.29101 -0.0110512 0)
(7.28879 -0.0109357 -4.59019e-20)
(7.28663 -0.0109403 5.01767e-20)
(7.28454 -0.0110888 -5.28303e-20)
(7.2825 -0.0114071 5.7384e-20)
(7.28054 -0.0119234 -6.24734e-20)
(7.27864 -0.0126684 3.20855e-20)
(7.27682 -0.013675 1.07095e-19)
(7.27506 -0.0149787 0)
(7.27336 -0.0166168 -4.12098e-20)
(7.27172 -0.018629 8.66335e-20)
(7.27012 -0.021057 0)
(7.26857 -0.0239445 0)
(7.26703 -0.0273369 -2.7535e-20)
(7.2655 -0.0312815 1.14716e-19)
(7.26396 -0.0358271 0)
(7.26238 -0.0410248 -3.27506e-20)
(7.26075 -0.0469269 6.82625e-20)
(7.25903 -0.0535878 -3.74452e-20)
(7.2572 -0.0610637 3.84756e-20)
(7.25523 -0.069413 -1.08804e-19)
(7.25308 -0.0786966 1.97545e-20)
(7.25072 -0.0889784 -7.59024e-20)
(7.24811 -0.100325 1.07975e-19)
(7.24522 -0.112806 -2.63806e-20)
(7.242 -0.126498 -5.94989e-20)
(7.2384 -0.141478 -3.37612e-20)
(7.23439 -0.157834 -2.21911e-20)
(7.2299 -0.175657 -4.12902e-20)
(7.22491 -0.195045 6.64492e-20)
(7.21934 -0.216108 -1.98307e-21)
(7.21314 -0.238965 2.73976e-20)
(7.20626 -0.263745 -2.69589e-21)
(7.19864 -0.290594 -1.30362e-20)
(7.1902 -0.319673 2.05933e-20)
(7.18088 -0.351159 -7.81537e-20)
(7.17061 -0.385254 -2.44018e-20)
(7.15931 -0.422187 2.13571e-20)
(7.1469 -0.462214 8.16184e-20)
(7.13329 -0.505631 4.47294e-21)
(7.1184 -0.552771 -4.56504e-20)
(7.10213 -0.604023 9.16605e-22)
(7.0844 -0.659846 4.13983e-20)
(7.0651 -0.720739 0)
(7.04415 -0.787397 5.27395e-20)
(7.02144 -0.860352 0)
(6.99693 -0.940973 2.74688e-20)
(6.97053 -1.02915 0)
(6.94226 -1.12882 0)
(6.91232 -1.23556 0)
(6.88006 -1.36439 4.71827e-20)
(6.84884 -1.49005 2.1111e-20)
(6.81026 -1.6722 -3.33811e-20)
(6.7901 -1.80359 -2.75554e-20)
(6.72893 -2.09874 1.23197e-20)
(6.77307 -2.19123 4.16661e-21)
(6.61702 -2.72109 6.20082e-21)
(6.98009 -2.74551 2.16264e-21)
(6.40853 -3.76473 -2.36942e-21)
(7.34681 -0.0243278 1.79142e-19)
(7.34981 -0.01838 8.38e-20)
(7.34912 -0.0167981 6.67363e-20)
(7.34834 -0.0177411 -2.75639e-19)
(7.34729 -0.0174866 0)
(7.3462 -0.0173386 0)
(7.34466 -0.0172808 1.33776e-19)
(7.34313 -0.0171909 0)
(7.34137 -0.0170444 0)
(7.33957 -0.0168847 -1.87037e-19)
(7.33763 -0.0166839 -3.15711e-19)
(7.33564 -0.0164532 2.28762e-19)
(7.33357 -0.0161863 1.28209e-19)
(7.33144 -0.015889 2.87983e-19)
(7.32925 -0.0155592 -1.53848e-19)
(7.32702 -0.0152006 -8.72063e-20)
(7.32474 -0.0148138 9.79481e-20)
(7.32243 -0.0144022 -3.12834e-19)
(7.32008 -0.0139678 2.04224e-21)
(7.3177 -0.0135145 -2.51016e-19)
(7.3153 -0.0130462 0)
(7.31289 -0.0125676 0)
(7.31045 -0.0120843 0)
(7.30801 -0.011603 0)
(7.30557 -0.0111311 1.97956e-19)
(7.30312 -0.0106775 0)
(7.30069 -0.0102524 2.35607e-19)
(7.29827 -0.00986752 0)
(7.29586 -0.00953595 1.3881e-19)
(7.29348 -0.00927265 7.55431e-20)
(7.29113 -0.00909441 -8.28854e-20)
(7.28881 -0.00901994 8.60695e-20)
(7.28652 -0.00906989 9.44068e-20)
(7.28427 -0.00926707 -1.04557e-19)
(7.28207 -0.00963639 1.10098e-19)
(7.2799 -0.0102049 -6.07216e-20)
(7.27778 -0.0110018 1.28239e-19)
(7.2757 -0.0120587 -6.90927e-20)
(7.27365 -0.0134089 0)
(7.27162 -0.0150882 0)
(7.26962 -0.0171342 -1.74313e-19)
(7.26764 -0.0195865 -2.03083e-21)
(7.26565 -0.0224867 0)
(7.26364 -0.025878 1.08386e-19)
(7.2616 -0.029806 -1.149e-19)
(7.25951 -0.0343173 -6.0841e-20)
(7.25735 -0.0394608 0)
(7.25508 -0.0452873 0)
(7.2527 -0.0518495 0)
(7.25016 -0.059202 3.9704e-20)
(7.24743 -0.0674018 4.26674e-20)
(7.24449 -0.0765089 4.59117e-20)
(7.24129 -0.0865854 4.94772e-20)
(7.2378 -0.0976974 -5.34077e-20)
(7.23398 -0.109915 3.23103e-20)
(7.22978 -0.123312 -1.01198e-21)
(7.22516 -0.137967 7.15115e-20)
(7.22007 -0.153966 -4.10307e-20)
(7.21446 -0.171401 3.7414e-20)
(7.20828 -0.190371 -4.5611e-20)
(7.20148 -0.210985 -2.40806e-20)
(7.19398 -0.233363 -8.71409e-20)
(7.18574 -0.257635 2.91847e-20)
(7.17667 -0.28395 -3.51328e-20)
(7.16672 -0.312466 1.53332e-21)
(7.15581 -0.343368 1.27217e-19)
(7.14386 -0.376859 -4.98742e-20)
(7.13078 -0.41317 1.04013e-19)
(7.11648 -0.452563 -8.06368e-20)
(7.10087 -0.495342 3.72545e-20)
(7.08386 -0.541846 -3.69384e-20)
(7.06532 -0.592476 3.90768e-20)
(7.04515 -0.647706 -6.46487e-20)
(7.02325 -0.708055 5.20887e-20)
(6.99949 -0.774222 -2.45996e-20)
(6.97376 -0.846822 0)
(6.94597 -0.927141 7.40896e-20)
(6.91604 -1.01538 8.23879e-20)
(6.88388 -1.11501 9.11691e-20)
(6.84974 -1.22282 2.36667e-20)
(6.81293 -1.35171 -9.75186e-20)
(6.77642 -1.48088 -3.28426e-20)
(6.73319 -1.66248 -6.29541e-20)
(6.70497 -1.80278 8.24981e-20)
(6.64177 -2.09621 3.00175e-20)
(6.67112 -2.20486 -5.63298e-20)
(6.51964 -2.73634 -8.04143e-21)
(6.83798 -2.76712 -2.29758e-20)
(6.29009 -3.8143 -1.64833e-20)
(7.34839 -0.0204021 -1.38037e-19)
(7.3499 -0.0168906 -1.33015e-19)
(7.34965 -0.0150685 1.59624e-19)
(7.34857 -0.01591 1.0395e-20)
(7.34749 -0.0158519 -2.10003e-19)
(7.34632 -0.0156608 2.21098e-19)
(7.34483 -0.0155865 2.60679e-19)
(7.34326 -0.0154808 -1.40058e-19)
(7.34155 -0.0153166 0)
(7.33975 -0.0151271 1.80465e-19)
(7.33785 -0.0149012 2.00951e-19)
(7.33588 -0.0146407 -1.11574e-19)
(7.33383 -0.0143447 -1.23713e-19)
(7.33173 -0.0140168 -1.41003e-19)
(7.32957 -0.0136572 1.4724e-19)
(7.32736 -0.0132686 0)
(7.32511 -0.0128532 1.87387e-19)
(7.32281 -0.0124139 2.05617e-19)
(7.32048 -0.0119539 0)
(7.31812 -0.011477 -1.19848e-19)
(7.31573 -0.0109876 0)
(7.31331 -0.0104909 -1.45301e-19)
(7.31088 -0.00999285 0)
(7.30843 -0.00950023 3.51584e-19)
(7.30597 -0.00902099 -3.74171e-19)
(7.3035 -0.00856409 -4.11271e-19)
(7.30103 -0.00813987 -2.28548e-19)
(7.29856 -0.00775999 1.21194e-19)
(7.2961 -0.00743755 -1.34092e-19)
(7.29364 -0.00718728 0)
(7.29119 -0.00702572 0)
(7.28876 -0.006971 -8.67321e-20)
(7.28635 -0.00704312 1.82757e-19)
(7.28395 -0.00726424 9.88662e-20)
(7.28157 -0.00765809 0)
(7.2792 -0.0082509 0)
(7.27685 -0.00907052 -1.27879e-19)
(7.27452 -0.0101471 1.34697e-19)
(7.27218 -0.0115123 -7.43567e-20)
(7.26984 -0.0132005 3.18274e-19)
(7.26749 -0.0152474 1.72582e-19)
(7.26512 -0.0176911 -1.63161e-22)
(7.26271 -0.020571 -1.00436e-19)
(7.26025 -0.0239289 3.42319e-21)
(7.25773 -0.0278082 1.1291e-19)
(7.25511 -0.032254 -1.26422e-19)
(7.25237 -0.0373135 6.77081e-20)
(7.2495 -0.0430359 2.54789e-21)
(7.24647 -0.0494722 0)
(7.24324 -0.056676 -8.67112e-20)
(7.23979 -0.0647029 -9.40902e-20)
(7.23607 -0.0736118 1.02233e-19)
(7.23206 -0.0834642 -5.65934e-20)
(7.22771 -0.094325 -1.17112e-19)
(7.22298 -0.106264 1.5294e-21)
(7.21782 -0.119353 7.08607e-20)
(7.2122 -0.133674 -7.47531e-20)
(7.20605 -0.149309 -4.25202e-20)
(7.19933 -0.166351 1.37359e-19)
(7.19199 -0.1849 4.5734e-20)
(7.18395 -0.205066 5.42858e-20)
(7.17516 -0.226968 5.80289e-20)
(7.16555 -0.250738 -7.11067e-20)
(7.15505 -0.276525 0)
(7.14359 -0.304491 0)
(7.13107 -0.334822 -1.88564e-19)
(7.11742 -0.367725 -5.83598e-20)
(7.10253 -0.403433 0)
(7.08632 -0.442213 0)
(7.06866 -0.484374 -6.72687e-20)
(7.04946 -0.530265 0)
(7.02858 -0.580302 -1.40529e-19)
(7.00591 -0.634959 4.86841e-20)
(6.9813 -0.694781 5.01268e-21)
(6.95461 -0.76048 -1.59461e-19)
(6.92571 -0.832731 3.4088e-20)
(6.89447 -0.912773 -1.16001e-19)
(6.86078 -1.00104 -1.2385e-19)
(6.82448 -1.10067 -9.01578e-20)
(6.78581 -1.20939 1.143e-19)
(6.74402 -1.3385 -1.25467e-19)
(6.70186 -1.4707 5.97769e-20)
(6.65298 -1.65227 6.26292e-20)
(6.61684 -1.80023 -1.66471e-19)
(6.54916 -2.09301 1.86046e-20)
(6.56489 -2.21662 2.73056e-20)
(6.41561 -2.75026 8.27298e-21)
(6.69956 -2.78822 8.48957e-20)
(6.21246 -3.87303 2.86538e-20)
(7.3495 -0.0170622 -1.28063e-19)
(7.34994 -0.0151 -1.37549e-19)
(7.35 -0.0133652 -1.445e-19)
(7.34877 -0.014102 1.79343e-19)
(7.34767 -0.014198 7.20481e-21)
(7.34644 -0.0140097 0)
(7.345 -0.0139187 7.75916e-21)
(7.34341 -0.0137997 -1.36063e-19)
(7.34173 -0.0136197 1.51033e-19)
(7.33994 -0.0134024 0)
(7.33807 -0.0131498 1.97846e-19)
(7.33612 -0.0128591 -2.08319e-19)
(7.33411 -0.0125326 -2.42835e-19)
(7.33203 -0.0121726 1.24217e-19)
(7.3299 -0.011781 0)
(7.32771 -0.0113604 0)
(7.32548 -0.0109135 -1.7478e-19)
(7.3232 -0.0104436 -1.94274e-19)
(7.32089 -0.00995431 2.11406e-19)
(7.31854 -0.00944971 4.72715e-19)
(7.31616 -0.00893462 3.66623e-21)
(7.31375 -0.00841439 -2.81237e-19)
(7.31131 -0.00789524 -5.84409e-21)
(7.30885 -0.0073843 -3.66312e-21)
(7.30637 -0.00688961 1.38915e-21)
(7.30387 -0.00642032 2.00665e-19)
(7.30137 -0.00598666 0)
(7.29885 -0.00560029 1.20828e-19)
(7.29632 -0.00527418 -2.58701e-19)
(7.29378 -0.00502293 -1.44838e-19)
(7.29124 -0.00486246 -4.7011e-21)
(7.2887 -0.00481038 -2.40569e-21)
(7.28616 -0.00488624 -1.79753e-19)
(7.28361 -0.00511125 0)
(7.28105 -0.00550832 0)
(7.27849 -0.00610243 -1.16042e-19)
(7.27592 -0.00692035 -2.2089e-21)
(7.27333 -0.00799069 0)
(7.27072 -0.009344 0)
(7.26807 -0.0110128 -1.55221e-19)
(7.26538 -0.0130313 -8.37742e-20)
(7.26264 -0.0154357 1.85213e-19)
(7.25982 -0.018264 1.979e-19)
(7.25692 -0.021556 -1.02431e-19)
(7.25391 -0.0253532 2.35114e-19)
(7.25078 -0.0296994 -7.87398e-22)
(7.2475 -0.0346399 0)
(7.24404 -0.0402223 -7.18986e-20)
(7.24038 -0.0464962 1.63485e-19)
(7.23648 -0.0535135 1.72535e-19)
(7.23232 -0.0613287 -9.8205e-20)
(7.22785 -0.0699995 -9.95776e-20)
(7.22304 -0.0795862 1.08386e-19)
(7.21785 -0.0901529 0)
(7.21224 -0.101768 -1.38443e-19)
(7.20615 -0.114504 0)
(7.19954 -0.128441 0)
(7.19236 -0.143661 0)
(7.18456 -0.160256 -9.33738e-20)
(7.17606 -0.178328 5.50567e-20)
(7.16682 -0.197983 6.58336e-20)
(7.15676 -0.219344 0)
(7.1458 -0.242542 -8.09329e-21)
(7.13388 -0.267727 5.64433e-21)
(7.12091 -0.295062 0)
(7.10681 -0.324734 4.38698e-20)
(7.09146 -0.35695 4.35835e-20)
(7.07478 -0.391951 -1.31296e-19)
(7.05665 -0.430005 0)
(7.03696 -0.471426 0)
(7.01556 -0.516573 0)
(6.99233 -0.565863 4.24795e-20)
(6.96712 -0.619785 5.36384e-20)
(6.93976 -0.678909 0)
(6.9101 -0.743946 -5.79703e-21)
(6.87796 -0.815625 2.39503e-19)
(6.84316 -0.895159 3.73915e-20)
(6.80558 -0.98319 9.73311e-20)
(6.76497 -1.08255 -1.95568e-19)
(6.72156 -1.19185 1.32638e-20)
(6.67447 -1.32088 1.60343e-20)
(6.62635 -1.45571 -3.69075e-20)
(6.57114 -1.63692 3.92103e-20)
(6.52683 -1.79229 1.73248e-19)
(6.45312 -2.08383 0)
(6.45526 -2.22257 1.11589e-19)
(6.30648 -2.75954 6.59117e-20)
(6.55326 -2.80516 -6.37727e-20)
(6.138 -3.93215 -9.63839e-21)
(7.34985 -0.0142522 2.40758e-19)
(7.35004 -0.0133363 0)
(7.35016 -0.011723 1.40419e-19)
(7.34899 -0.0123667 3.40861e-19)
(7.34782 -0.0125605 -1.76888e-19)
(7.3466 -0.0123992 -2.07293e-19)
(7.34516 -0.0122883 4.87103e-19)
(7.34359 -0.0121572 -5.30459e-19)
(7.34193 -0.0119591 0)
(7.34017 -0.0117156 1.71689e-19)
(7.33832 -0.0114338 -1.80778e-19)
(7.3364 -0.0111122 0)
(7.33441 -0.0107528 0)
(7.33235 -0.0103588 0)
(7.33024 -0.00993266 2.76632e-19)
(7.32808 -0.00947726 0)
(7.32587 -0.00899574 1.69904e-19)
(7.32361 -0.00849169 -1.90206e-19)
(7.32131 -0.00796897 -5.21353e-21)
(7.31897 -0.007432 -2.23307e-19)
(7.3166 -0.00688584 -2.54062e-19)
(7.31419 -0.0063361 5.36181e-19)
(7.31175 -0.00578914 0)
(7.30927 -0.00525216 3.22062e-19)
(7.30677 -0.00473339 3.53612e-19)
(7.30425 -0.00424194 -4.33826e-21)
(7.3017 -0.00378806 2.07223e-19)
(7.29913 -0.00338325 0)
(7.29654 -0.0030403 0)
(7.29392 -0.00277339 2.75305e-19)
(7.29129 -0.00259802 -1.43491e-19)
(7.28864 -0.00253149 -1.58936e-19)
(7.28596 -0.00259231 1.75517e-19)
(7.28326 -0.00280109 1.90813e-19)
(7.28054 -0.0031799 -2.10043e-19)
(7.27778 -0.00375259 3.35237e-19)
(7.27499 -0.00454471 1.10022e-21)
(7.27216 -0.00558368 0)
(7.26927 -0.00689858 -1.44184e-19)
(7.26632 -0.00852055 0)
(7.2633 -0.0104822 1.69957e-19)
(7.2602 -0.0128181 -3.64992e-19)
(7.25699 -0.0155646 -1.00511e-19)
(7.25366 -0.01876 7.81944e-23)
(7.25019 -0.0224439 -2.33194e-19)
(7.24656 -0.0266586 2.53598e-19)
(7.24275 -0.0314478 4.29383e-21)
(7.23872 -0.0368574 -1.47599e-19)
(7.23445 -0.0429356 9.03604e-20)
(7.2299 -0.0497329 -8.75532e-20)
(7.22505 -0.0573025 9.45643e-20)
(7.21986 -0.0657005 7.93393e-22)
(7.21428 -0.0749865 -4.35757e-21)
(7.20827 -0.085223 1.25025e-19)
(7.2018 -0.0964782 1.35227e-19)
(7.1948 -0.108823 -7.85374e-20)
(7.18724 -0.122336 -3.63475e-21)
(7.17905 -0.1371 -4.13908e-21)
(7.17017 -0.153206 2.07684e-19)
(7.16056 -0.170755 -5.84491e-20)
(7.15012 -0.189854 6.84371e-21)
(7.13881 -0.210624 2.14268e-19)
(7.12653 -0.233198 1.4937e-19)
(7.1132 -0.257723 -2.63706e-19)
(7.09875 -0.284365 -9.94298e-20)
(7.08306 -0.313313 1.05203e-19)
(7.06603 -0.344776 1.1523e-19)
(7.04756 -0.378993 -1.19888e-20)
(7.02752 -0.416239 0)
(7.00577 -0.456829 -8.72503e-20)
(6.98217 -0.501127 1.41417e-19)
(6.95656 -0.549563 -5.19062e-20)
(6.92878 -0.60263 0)
(6.89864 -0.660911 -6.93497e-20)
(6.86594 -0.725134 7.3629e-20)
(6.83047 -0.796075 -1.6157e-19)
(6.79202 -0.874922 -2.00351e-19)
(6.75042 -0.962485 2.24993e-19)
(6.70533 -1.06138 2.39547e-19)
(6.65695 -1.17092 1.43724e-20)
(6.60429 -1.2997 1.40143e-19)
(6.54988 -1.43667 4.1555e-20)
(6.48779 -1.61739 -2.3339e-19)
(6.43498 -1.77957 -9.22646e-20)
(6.35397 -2.06975 0)
(6.34237 -2.22356 -1.01539e-19)
(6.19184 -2.76509 -8.68575e-20)
(6.3958 -2.8198 1.15947e-19)
(6.03135 -3.98387 0)
(7.35016 -0.0119037 0)
(7.35009 -0.011653 0)
(7.35028 -0.0101855 0)
(7.34917 -0.0107253 -1.62627e-19)
(7.34796 -0.0109759 -1.91703e-19)
(7.34674 -0.0108388 2.01849e-19)
(7.34533 -0.010708 -1.2588e-21)
(7.34378 -0.0105588 -2.5933e-19)
(7.34214 -0.0103403 -2.88889e-19)
(7.3404 -0.0100689 0)
(7.33858 -0.00975557 -3.56382e-19)
(7.33668 -0.0094005 0)
(7.33472 -0.00900597 2.18516e-19)
(7.33269 -0.00857535 0)
(7.33061 -0.00811182 -2.69794e-19)
(7.32847 -0.00761851 3.02914e-19)
(7.32628 -0.00709896 4.91573e-21)
(7.32404 -0.00655688 0)
(7.32176 -0.00599648 1.96018e-19)
(7.31943 -0.00542241 -2.18889e-19)
(7.31706 -0.00483979 -5.91002e-21)
(7.31465 -0.00425444 -2.5932e-19)
(7.3122 -0.00367282 2.84223e-19)
(7.30971 -0.0031022 -6.25512e-19)
(7.30719 -0.00255088 -1.71836e-19)
(7.30464 -0.0020278 2.90005e-21)
(7.30205 -0.00154327 -2.0084e-19)
(7.29942 -0.00110845 0)
(7.29676 -0.000735929 2.47873e-19)
(7.29407 -0.00043932 -2.55867e-19)
(7.29135 -0.000234077 -1.3985e-19)
(7.28858 -0.000136389 3.1501e-19)
(7.28578 -0.000164601 -3.45773e-19)
(7.28293 -0.000338331 -1.92361e-19)
(7.28004 -0.000678647 -6.47709e-21)
(7.2771 -0.0012084 4.38985e-19)
(7.27409 -0.00195215 0)
(7.27102 -0.00293596 0)
(7.26787 -0.00418773 -3.31451e-21)
(7.26463 -0.00573705 -3.48535e-21)
(7.26129 -0.0076151 -1.66115e-19)
(7.25783 -0.00985495 -5.02729e-21)
(7.25425 -0.0124914 -1.06214e-19)
(7.2505 -0.0155611 2.15341e-19)
(7.24659 -0.019102 1.15811e-19)
(7.24248 -0.0231551 0)
(7.23815 -0.027762 0)
(7.23357 -0.0329677 1.55492e-19)
(7.22872 -0.0388183 -3.2725e-19)
(7.22355 -0.0453632 0)
(7.21803 -0.0526544 -3.06375e-19)
(7.21213 -0.0607461 -1.11054e-19)
(7.2058 -0.0696971 1.18027e-19)
(7.199 -0.0795685 0)
(7.19169 -0.0904277 1.4973e-19)
(7.18381 -0.102344 -8.21651e-20)
(7.17531 -0.115396 1.77549e-19)
(7.16614 -0.129664 -2.98125e-19)
(7.15622 -0.145241 7.2466e-21)
(7.1455 -0.162224 0)
(7.13391 -0.180721 -1.28898e-19)
(7.12136 -0.200853 -1.43241e-19)
(7.10777 -0.222752 8.51279e-20)
(7.09307 -0.246565 -7.39076e-21)
(7.07714 -0.272459 1.0051e-19)
(7.05989 -0.300622 -2.3837e-19)
(7.04119 -0.331264 5.92294e-20)
(7.02094 -0.364628 1.33389e-19)
(6.99899 -0.400988 -7.89488e-20)
(6.97519 -0.440664 0)
(6.94938 -0.484026 2.13015e-19)
(6.92139 -0.531506 2.39688e-19)
(6.89101 -0.58361 0)
(6.85805 -0.640938 -7.51668e-20)
(6.82226 -0.704221 -6.77062e-21)
(6.78341 -0.774275 -2.83008e-19)
(6.74121 -0.852283 1.45146e-19)
(6.69545 -0.939195 1.3879e-19)
(6.64573 -1.03746 -5.32389e-19)
(6.59215 -1.14699 -6.8408e-20)
(6.53363 -1.27541 -4.21273e-20)
(6.47253 -1.41412 -1.94636e-19)
(6.40305 -1.59446 1.87357e-19)
(6.34107 -1.76283 -2.07698e-19)
(6.25168 -2.05214 2.88743e-20)
(6.22554 -2.22054 0)
(6.07076 -2.76708 0)
(6.24464 -2.84108 3.11029e-20)
(5.87496 -4.01147 -8.77413e-21)
(7.35042 -0.0099199 0)
(7.35012 -0.0101002 0)
(7.35036 -0.00876967 0)
(7.34932 -0.0091957 1.33229e-20)
(7.3481 -0.00946282 -1.74077e-19)
(7.34689 -0.0093403 4.06175e-19)
(7.34551 -0.00918573 -4.47135e-19)
(7.34399 -0.0090116 7.656e-19)
(7.34236 -0.00876797 8.59176e-21)
(7.34065 -0.00846564 0)
(7.33886 -0.0081177 3.4865e-19)
(7.33699 -0.00772621 1.97116e-19)
(7.33506 -0.00729349 -4.21384e-19)
(7.33306 -0.00682328 0)
(7.331 -0.00631913 2.65577e-19)
(7.32888 -0.00578456 -2.79685e-19)
(7.32671 -0.00522324 5.37985e-21)
(7.32449 -0.00463914 -3.39481e-19)
(7.32222 -0.00403656 3.11169e-21)
(7.3199 -0.00342035 5.45893e-21)
(7.31754 -0.0027957 -6.39762e-21)
(7.31513 -0.00216857 5.01332e-19)
(7.31267 -0.00154544 -3.00864e-21)
(7.31017 -0.000933616 6.06361e-19)
(7.30763 -0.000341224 0)
(7.30504 0.000222832 0)
(7.30241 0.000748418 0)
(7.29974 0.00122463 0)
(7.29702 0.00163927 -4.78251e-19)
(7.29425 0.00197902 5.14073e-19)
(7.29143 0.00222906 5.70165e-19)
(7.28856 0.00237359 -1.49354e-19)
(7.28563 0.00239505 -3.39381e-19)
(7.28264 0.00227477 1.80367e-19)
(7.27959 0.0019924 0)
(7.27646 0.00152613 -6.57118e-19)
(7.27324 0.000852511 -2.46189e-19)
(7.26994 -5.33441e-05 -5.3666e-21)
(7.26654 -0.00121807 0)
(7.26302 -0.0026698 -2.2674e-21)
(7.25937 -0.00443844 0)
(7.25558 -0.00655561 -1.85926e-19)
(7.25162 -0.0090544 3.92973e-19)
(7.24748 -0.0119701 -2.14732e-19)
(7.24314 -0.0153392 -1.21044e-19)
(7.23857 -0.0192008 -4.7201e-21)
(7.23374 -0.0235952 1.39589e-19)
(7.22864 -0.0285658 0)
(7.22321 -0.0341572 -1.73639e-19)
(7.21744 -0.0404172 0)
(7.21128 -0.0473966 4.10702e-19)
(7.2047 -0.0551482 -1.15497e-19)
(7.19765 -0.063729 1.21912e-19)
(7.19009 -0.0731991 1.40368e-19)
(7.18196 -0.0836249 -2.95768e-19)
(7.17323 -0.0950745 -1.63758e-19)
(7.16382 -0.107624 0)
(7.15369 -0.121355 1.99203e-19)
(7.14276 -0.136357 -1.10452e-19)
(7.13096 -0.152727 0)
(7.11823 -0.170573 -1.4534e-19)
(7.10448 -0.190014 0)
(7.08961 -0.211181 0)
(7.07355 -0.234222 -1.00782e-19)
(7.05617 -0.259303 2.19488e-19)
(7.03738 -0.286611 1.25227e-19)
(7.01704 -0.316355 7.84473e-21)
(6.99503 -0.348781 -1.47949e-21)
(6.97118 -0.384164 0)
(6.94534 -0.422827 0)
(6.91733 -0.465139 -3.2563e-19)
(6.88696 -0.51154 -2.30587e-19)
(6.85398 -0.562545 -4.24933e-19)
(6.81818 -0.618761 -8.11523e-20)
(6.77928 -0.680929 2.56817e-19)
(6.73699 -0.749898 1.92349e-19)
(6.69099 -0.826849 5.83031e-20)
(6.64097 -0.912847 -3.06763e-19)
(6.58648 -1.01022 2.75414e-19)
(6.5275 -1.11938 0)
(6.46287 -1.24714 -1.89825e-19)
(6.39468 -1.38705 2.97412e-19)
(6.31733 -1.56671 -1.10355e-19)
(6.24548 -1.74055 2.36913e-19)
(6.14661 -2.0286 0)
(6.1049 -2.21146 0)
(5.94342 -2.76037 1.62569e-20)
(6.08469 -2.85125 6.13288e-21)
(5.74125 -4.0492 -2.52275e-21)
(7.35069 -0.00823801 0)
(7.35018 -0.0086785 0)
(7.35043 -0.0074739 -2.75193e-19)
(7.34946 -0.00778185 6.38882e-19)
(7.34825 -0.00803269 -6.9937e-19)
(7.34705 -0.00791107 -3.95355e-19)
(7.3457 -0.00772723 -2.2731e-19)
(7.3442 -0.00752064 2.45392e-19)
(7.34261 -0.00724602 1.45858e-20)
(7.34093 -0.00690866 -6.07519e-19)
(7.33916 -0.00652241 -5.86494e-21)
(7.33732 -0.00609092 -3.69668e-19)
(7.33542 -0.00561667 -1.97648e-19)
(7.33344 -0.00510351 3.45279e-21)
(7.33141 -0.00455535 7.98464e-21)
(7.32932 -0.00397585 -5.54153e-19)
(7.32717 -0.00336885 6.01145e-19)
(7.32497 -0.00273849 1.02004e-20)
(7.32271 -0.00208917 -1.72894e-19)
(7.32041 -0.00142572 -6.02096e-19)
(7.31805 -0.000753482 -2.24434e-19)
(7.31564 -7.83976e-05 -2.43275e-19)
(7.31318 0.00059311 -2.7019e-19)
(7.31066 0.00125374 4.57886e-21)
(7.3081 0.00189558 -9.67412e-19)
(7.30549 0.00250979 5.27508e-19)
(7.30282 0.00308659 -3.82776e-19)
(7.30009 0.00361533 -5.00675e-21)
(7.29731 0.00408413 -7.24472e-21)
(7.29446 0.00448016 5.07055e-19)
(7.29156 0.00478913 -5.49363e-19)
(7.28858 0.00499582 -3.02756e-19)
(7.28553 0.00508343 6.64024e-19)
(7.2824 0.00503409 -1.77416e-19)
(7.27919 0.00482823 -3.98209e-19)
(7.27588 0.00444516 4.26297e-19)
(7.27247 0.00386246 2.34191e-19)
(7.26895 0.00305642 2.555e-19)
(7.2653 0.00200165 -2.81916e-19)
(7.26151 0.000671314 1.52126e-19)
(7.25756 -0.000963192 0)
(7.25345 -0.00293196 1.97418e-21)
(7.24914 -0.00526658 -1.9677e-19)
(7.24462 -0.00800086 2.216e-19)
(7.23987 -0.0111699 1.22478e-19)
(7.23485 -0.014811 -2.6347e-19)
(7.22955 -0.0189633 1.41661e-19)
(7.22394 -0.0236681 1.61886e-19)
(7.21797 -0.0289689 -1.77749e-19)
(7.21161 -0.034912 1.87835e-19)
(7.20484 -0.0415461 -4.21814e-19)
(7.1976 -0.0489231 1.19077e-19)
(7.18985 -0.0570986 -1.25724e-19)
(7.18155 -0.066131 -1.45433e-19)
(7.17265 -0.0760851 4.67861e-19)
(7.16308 -0.0870274 -3.48334e-19)
(7.1528 -0.0990335 -9.9069e-20)
(7.14173 -0.112183 -1.1527e-19)
(7.12982 -0.126564 1.22522e-19)
(7.11698 -0.142272 -5.38919e-19)
(7.10314 -0.159415 2.8813e-19)
(7.08821 -0.178109 -1.7009e-19)
(7.0721 -0.198484 2.7511e-19)
(7.05471 -0.220687 3.13612e-19)
(7.03592 -0.244884 0)
(7.01561 -0.271258 0)
(6.99366 -0.300021 1.50406e-19)
(6.9699 -0.331417 -1.59526e-19)
(6.94419 -0.365721 1.90489e-19)
(6.91634 -0.403254 0)
(6.88615 -0.444392 -1.57622e-20)
(6.8534 -0.489573 -2.73395e-19)
(6.81784 -0.539315 -9.77362e-20)
(6.7792 -0.594237 8.20385e-20)
(6.73718 -0.655086 0)
(6.69143 -0.722737 3.35334e-19)
(6.64156 -0.798366 -1.1887e-19)
(6.58723 -0.883136 7.13427e-20)
(6.52786 -0.979279 -1.56796e-19)
(6.46333 -1.08761 8.61341e-20)
(6.39238 -1.21429 1.90916e-19)
(6.31679 -1.35473 0)
(6.23111 -1.53321 0)
(6.1488 -1.71163 2.92365e-19)
(6.03944 -1.99758 -3.10436e-19)
(5.98116 -2.19462 0)
(5.81006 -2.74288 0)
(5.9204 -2.86049 -1.56631e-19)
(5.61374 -4.09061 -7.05689e-20)
(7.35098 -0.00680578 2.31433e-19)
(7.35028 -0.00738495 -2.82573e-21)
(7.35051 -0.00629285 -2.80469e-19)
(7.3496 -0.00648295 0)
(7.3484 -0.00669069 -3.59304e-19)
(7.34722 -0.0065554 7.67394e-19)
(7.3459 -0.00633593 -4.28934e-19)
(7.34443 -0.00608948 8.09402e-21)
(7.34287 -0.00577741 -2.59384e-19)
(7.34122 -0.00540031 0)
(7.33948 -0.00497161 3.28707e-19)
(7.33768 -0.00449619 3.63796e-19)
(7.3358 -0.00397673 -1.9855e-19)
(7.33386 -0.00341705 2.04853e-19)
(7.33185 -0.00282122 4.83143e-19)
(7.32978 -0.00219298 -5.40856e-19)
(7.32766 -0.00153627 2.84721e-19)
(7.32548 -0.00085533 3.28025e-19)
(7.32324 -0.000154533 0)
(7.32094 0.000561195 7.87916e-19)
(7.31859 0.00128663 -4.36325e-19)
(7.31618 0.00201582 7.0888e-19)
(7.31372 0.00274255 0)
(7.31119 0.00345951 -2.92778e-19)
(7.30861 0.004159 3.03495e-19)
(7.30597 0.00483247 3.38229e-19)
(7.30326 0.00547032 1.89751e-19)
(7.30048 0.00606239 -2.07754e-19)
(7.29764 0.00659695 2.27412e-19)
(7.29473 0.00706189 0)
(7.29173 0.00744351 2.70985e-19)
(7.28866 0.00772703 -6.41787e-21)
(7.28549 0.00789635 1.53208e-19)
(7.28223 0.00793464 -6.68221e-21)
(7.27887 0.00782322 5.84281e-19)
(7.27539 0.0075421 7.98844e-21)
(7.27179 0.00707016 8.75771e-21)
(7.26805 0.00638474 -5.06653e-19)
(7.26417 0.00546167 2.77845e-19)
(7.26012 0.00427539 -1.56013e-19)
(7.25589 0.00279863 -6.45139e-21)
(7.25147 0.00100285 3.62285e-19)
(7.24682 -0.00114246 -2.0553e-19)
(7.24194 -0.00366921 -2.24842e-19)
(7.2368 -0.00661133 -2.57455e-21)
(7.23136 -0.0100044 6.67233e-19)
(7.2256 -0.0138859 -2.93463e-19)
(7.2195 -0.0182957 1.58062e-19)
(7.21301 -0.0232759 0)
(7.2061 -0.0288709 -1.99134e-19)
(7.19873 -0.0351279 4.32357e-19)
(7.19086 -0.0420974 1.22468e-19)
(7.18244 -0.0498331 -2.63308e-19)
(7.17343 -0.0583921 -1.43174e-19)
(7.16377 -0.0678374 0)
(7.1534 -0.0782345 1.76138e-19)
(7.14227 -0.0896567 9.24194e-22)
(7.1303 -0.102182 -1.12548e-22)
(7.11744 -0.115897 0)
(7.10358 -0.130896 5.53915e-19)
(7.08867 -0.147284 0)
(7.0726 -0.165176 1.77506e-19)
(7.05527 -0.184701 -1.88313e-19)
(7.03658 -0.206004 -2.10921e-19)
(7.0164 -0.229247 -1.24673e-19)
(6.99462 -0.254614 -1.33036e-19)
(6.97107 -0.282315 0)
(6.94561 -0.312591 0)
(6.91806 -0.345715 -1.89078e-19)
(6.88822 -0.38201 -1.13513e-19)
(6.85586 -0.42185 1.05474e-19)
(6.82076 -0.465673 2.7177e-19)
(6.78263 -0.514002 4.71214e-19)
(6.74116 -0.567454 -1.74539e-19)
(6.696 -0.626788 2.10112e-19)
(6.64677 -0.692893 1.52589e-20)
(6.59303 -0.766943 2.70589e-19)
(6.53431 -0.850178 0)
(6.46999 -0.944752 0)
(6.39978 -1.05184 -3.96067e-19)
(6.32234 -1.17701 1.11219e-19)
(6.23907 -1.31735 7.24463e-20)
(6.14471 -1.49417 6.68547e-20)
(6.05143 -1.67625 -2.16961e-19)
(5.93073 -1.95948 -1.1463e-19)
(5.85509 -2.16993 3.45944e-19)
(5.67194 -2.71606 -2.93626e-19)
(5.74837 -2.86599 -2.3359e-20)
(5.44488 -4.11549 -2.86888e-20)
(7.35128 -0.00558406 1.73059e-19)
(7.35041 -0.00621214 0)
(7.3506 -0.00521752 2.70134e-19)
(7.34976 -0.00529323 0)
(7.34857 -0.00543777 3.52629e-19)
(7.3474 -0.00527488 -3.71321e-19)
(7.34611 -0.00501332 2.06785e-19)
(7.34468 -0.0047201 4.71023e-19)
(7.34314 -0.00436411 -5.18879e-19)
(7.34153 -0.00394228 -1.42787e-20)
(7.33983 -0.00346681 3.10044e-19)
(7.33805 -0.00294345 0)
(7.33621 -0.00237496 3.90947e-19)
(7.3343 -0.00176499 -4.31713e-19)
(7.33232 -0.00111768 -4.76041e-19)
(7.33028 -0.000436872 2.50777e-19)
(7.32818 0.000273615 -8.53081e-21)
(7.32602 0.0010095 0)
(7.3238 0.00176646 -3.45087e-19)
(7.32151 0.00253963 -7.65831e-19)
(7.31917 0.00332377 2.12207e-19)
(7.31677 0.00411318 -4.62934e-19)
(7.3143 0.0049017 -2.52486e-19)
(7.31176 0.00568228 0)
(7.30916 0.0064475 3.04727e-19)
(7.30649 0.00718888 3.34611e-19)
(7.30375 0.00789736 0)
(7.30093 0.00856293 0)
(7.29804 0.00917462 0)
(7.29505 0.00972054 6.00244e-21)
(7.29198 0.0101877 -2.57132e-19)
(7.28881 0.010562 -5.80408e-19)
(7.28553 0.0108281 -3.21089e-19)
(7.28215 0.0109698 3.51293e-19)
(7.27864 0.0109694 -1.927e-19)
(7.275 0.0108081 -2.11419e-19)
(7.27122 0.0104655 2.36409e-19)
(7.26728 0.00992033 8.48897e-21)
(7.26317 0.00914936 -2.7336e-19)
(7.25888 0.00812838 -4.63275e-19)
(7.25438 0.00683148 1.64621e-19)
(7.24966 0.00523141 0)
(7.2447 0.00329909 -2.07066e-19)
(7.23947 0.00100417 2.14329e-19)
(7.23395 -0.00168596 -2.4257e-19)
(7.22811 -0.00480504 -2.66861e-19)
(7.22192 -0.00838945 -3.01107e-19)
(7.21534 -0.0124772 0)
(7.20836 -0.0171088 -1.83738e-19)
(7.20091 -0.0223272 1.97177e-19)
(7.19298 -0.028178 7.14414e-21)
(7.1845 -0.0347099 0)
(7.17544 -0.041975 1.27458e-19)
(7.16575 -0.0500286 3.02488e-19)
(7.15536 -0.0589325 -3.36093e-19)
(7.14422 -0.0687497 1.82109e-19)
(7.13227 -0.0795514 4.16805e-19)
(7.11944 -0.091416 -4.6229e-19)
(7.10564 -0.104426 0)
(7.09081 -0.118675 -2.81919e-19)
(7.07485 -0.134265 -3.30279e-19)
(7.05767 -0.151309 -1.76333e-19)
(7.03916 -0.169935 -2.08836e-19)
(7.0192 -0.190284 1.0408e-19)
(6.99768 -0.212518 3.73065e-19)
(6.97444 -0.236818 -1.48191e-19)
(6.94934 -0.26339 4.88915e-19)
(6.9222 -0.292473 -1.88137e-19)
(6.89284 -0.32434 3.05986e-19)
(6.86104 -0.359312 1.25624e-19)
(6.82655 -0.397759 2.55167e-19)
(6.78911 -0.44012 0)
(6.74842 -0.486916 1.74003e-19)
(6.70413 -0.538768 -8.67175e-20)
(6.65585 -0.596437 -4.27484e-19)
(6.60314 -0.660824 7.09149e-21)
(6.54548 -0.733107 -2.80013e-19)
(6.48233 -0.814581 7.23763e-20)
(6.41297 -0.90735 1.81558e-19)
(6.33694 -1.01286 7.24119e-19)
(6.25281 -1.13627 -1.20671e-19)
(6.16156 -1.276 -6.77531e-19)
(6.0581 -1.45095 -3.1034e-19)
(5.95314 -1.63583 3.51585e-19)
(5.82021 -1.91641 7.32354e-19)
(5.72569 -2.13905 -3.94919e-19)
(5.52868 -2.68395 3.9232e-19)
(5.57056 -2.8599 -2.69574e-20)
(5.23996 -4.12144 2.28983e-19)
(7.35158 -0.00454205 3.52705e-19)
(7.35058 -0.00515205 2.67712e-19)
(7.35072 -0.00423885 2.70759e-19)
(7.34992 -0.00420558 0)
(7.34876 -0.00427228 0)
(7.3476 -0.00406925 0)
(7.34634 -0.00375939 4.23251e-19)
(7.34495 -0.00341334 -2.15925e-19)
(7.34344 -0.00300726 2.50539e-19)
(7.34186 -0.00253576 -2.86617e-19)
(7.3402 -0.00200926 3.01845e-19)
(7.33846 -0.00143387 3.49924e-19)
(7.33665 -0.000812475 -3.68525e-19)
(7.33477 -0.000148535 0)
(7.33282 0.000553991 2.23808e-19)
(7.33081 0.00129128 -2.96543e-21)
(7.32873 0.0020596 -2.76298e-19)
(7.3266 0.00285474 -3.0448e-19)
(7.32439 0.00367243 3.41617e-19)
(7.32213 0.00450803 6.67215e-21)
(7.31979 0.00535637 2.09803e-19)
(7.3174 0.00621195 6.4156e-21)
(7.31493 0.00706868 2.50002e-19)
(7.31239 0.00792001 -2.70604e-19)
(7.30977 0.00875858 -6.0812e-19)
(7.30708 0.00957633 3.18478e-19)
(7.30431 0.0103646 3.69634e-19)
(7.30145 0.0111137 -5.8146e-19)
(7.2985 0.0118131 -2.13848e-19)
(7.29545 0.0124516 2.4037e-19)
(7.29231 0.0130167 -2.61883e-19)
(7.28905 0.013495 7.11494e-21)
(7.28567 0.0138722 -3.10705e-19)
(7.28216 0.0141325 -6.95411e-19)
(7.27852 0.0142593 1.90957e-19)
(7.27473 0.0142347 -4.7432e-21)
(7.27078 0.0140393 -9.51131e-21)
(7.26665 0.0136529 7.54283e-19)
(7.26233 0.0130536 2.84432e-19)
(7.2578 0.0122183 1.61074e-19)
(7.25305 0.0111225 -1.64959e-19)
(7.24805 0.00974022 0)
(7.24279 0.00804381 2.08793e-19)
(7.23723 0.00600425 2.729e-21)
(7.23135 0.00359068 2.5014e-19)
(7.22513 0.000770587 2.80377e-19)
(7.21852 -0.00249068 -3.02473e-19)
(7.21151 -0.0062297 0)
(7.20405 -0.0104851 -7.13483e-21)
(7.1961 -0.0152983 -9.86994e-21)
(7.18762 -0.0207132 -2.34775e-19)
(7.17857 -0.026777 5.04797e-19)
(7.1689 -0.0335394 1.08996e-20)
(7.15855 -0.0410551 -3.16205e-19)
(7.14747 -0.0493826 -1.74196e-19)