/*--------------------------------*- C++ -*----------------------------------*\
  =========                 |
  \\      /  F ield         | OpenFOAM: The Open Source CFD Toolbox
   \\    /   O peration     | Website:  https://openfoam.org
    \\  /    A nd           | Version:  11
     \\/     M anipulation  |
\*---------------------------------------------------------------------------*/
FoamFile
{
    format      ascii;
    class       volVectorField;
    location    "350";
    object      U;
}
// * * * * * * * * * * * * * * * * * * * * * * * * * * * * * * * * * * * * * //

dimensions      [0 1 -1 0 0 0 0];

internalField   nonuniform List<vector> 
31595
(
(25.5176 3.30865 -9.05544e-19)
(25.6775 3.40415 3.33001e-19)
(25.62 3.43174 1.37053e-18)
(25.6345 3.42407 1.53684e-18)
(25.6133 3.42681 0)
(25.6058 3.43164 0)
(25.5832 3.43309 0)
(25.5647 3.43505 1.17198e-18)
(25.5409 3.43706 3.55751e-20)
(25.5169 3.43925 0)
(25.4904 3.44155 0)
(25.4629 3.44415 8.64491e-19)
(25.4336 3.44702 -9.10915e-19)
(25.4032 3.45023 1.04888e-18)
(25.3714 3.45379 -1.1053e-18)
(25.3383 3.45773 1.23435e-18)
(25.3039 3.46208 0)
(25.2681 3.46686 -1.54108e-18)
(25.231 3.4721 3.27022e-18)
(25.1926 3.47782 -9.33167e-19)
(25.1527 3.48405 9.83588e-19)
(25.1115 3.4908 0)
(25.0687 3.4981 0)
(25.0245 3.50598 1.36622e-18)
(24.9786 3.51445 -6.89164e-19)
(24.9312 3.52353 3.39009e-20)
(24.8821 3.53325 -1.73837e-18)
(24.8313 3.54363 -9.97681e-19)
(24.7786 3.55468 2.14817e-18)
(24.7242 3.56641 -2.32551e-18)
(24.6679 3.57885 0)
(24.6095 3.592 -6.94564e-19)
(24.5492 3.60587 7.98021e-19)
(24.4867 3.62046 -8.41806e-19)
(24.422 3.63578 9.49148e-19)
(24.355 3.65182 -1.05611e-18)
(24.2857 3.66859 5.59884e-19)
(24.2138 3.68606 1.864e-18)
(24.1395 3.70423 0)
(24.0624 3.72308 -7.65949e-19)
(23.9825 3.7426 1.63797e-18)
(23.8996 3.76275 0)
(23.8137 3.78351 0)
(23.7245 3.80484 -5.62316e-19)
(23.6319 3.82672 2.35747e-18)
(23.5357 3.8491 0)
(23.4357 3.87195 -7.33583e-19)
(23.3316 3.89522 1.56961e-18)
(23.2234 3.91885 -8.84002e-19)
(23.1107 3.9428 9.60096e-19)
(22.9932 3.96702 -2.60466e-18)
(22.8707 3.99143 5.64406e-19)
(22.7428 4.01598 -1.89725e-18)
(22.6092 4.04059 2.76697e-18)
(22.4696 4.06519 -7.37692e-19)
(22.3235 4.08969 -1.66771e-18)
(22.1705 4.114 -9.42601e-19)
(22.0101 4.13801 -5.39843e-19)
(21.8418 4.16161 -1.14995e-18)
(21.6651 4.18467 1.83666e-18)
(21.4794 4.20704 -1.11027e-20)
(21.2839 4.22857 7.51833e-19)
(21.0779 4.24906 4.03493e-20)
(20.8606 4.2683 -4.25564e-19)
(20.6312 4.28603 5.35891e-19)
(20.3885 4.30198 -2.25874e-18)
(20.1315 4.31581 -6.3494e-19)
(19.8589 4.32712 6.9978e-19)
(19.5693 4.33544 2.34173e-18)
(19.2611 4.34023 5.33515e-20)
(18.9326 4.34081 -1.4017e-18)
(18.5816 4.33638 2.30902e-20)
(18.2059 4.32598 1.2249e-18)
(17.8028 4.30839 0)
(17.3693 4.28215 1.53822e-18)
(16.9016 4.24541 0)
(16.3957 4.19587 9.90871e-19)
(15.8467 4.13059 0)
(15.2488 4.04579 0)
(14.5952 3.93661 0)
(13.8777 3.79658 1.74141e-18)
(13.0866 3.6172 1.01949e-18)
(12.2099 3.38693 -1.83109e-18)
(11.2344 3.08961 -1.49737e-18)
(10.1418 2.70523 8.78276e-19)
(8.91615 2.19527 5.78788e-19)
(7.5315 1.54518 7.73912e-19)
(5.98519 0.586562 -1.05086e-18)
(4.24996 -0.312888 1.61545e-18)
(25.6354 3.35119 2.84662e-18)
(25.6453 3.40575 1.51495e-18)
(25.6473 3.44966 1.29046e-18)
(25.6344 3.44251 -4.42478e-18)
(25.6207 3.44456 0)
(25.6061 3.45018 0)
(25.587 3.45316 1.97577e-18)
(25.5661 3.45564 0)
(25.5433 3.45858 0)
(25.5188 3.46165 -2.64766e-18)
(25.4928 3.4649 -4.42046e-18)
(25.4653 3.46845 3.19061e-18)
(25.4365 3.47234 1.76906e-18)
(25.4063 3.47661 3.95578e-18)
(25.3749 3.48127 -2.11618e-18)
(25.3421 3.48636 -1.19781e-18)
(25.3081 3.49191 1.33922e-18)
(25.2728 3.49794 -4.26986e-18)
(25.2362 3.50448 2.41506e-20)
(25.1982 3.51154 -3.43936e-18)
(25.1589 3.51915 0)
(25.1182 3.52734 0)
(25.076 3.53612 0)
(25.0323 3.54552 0)
(24.9871 3.55557 2.78337e-18)
(24.9402 3.56627 0)
(24.8918 3.57767 3.39229e-18)
(24.8416 3.58976 0)
(24.7896 3.60257 2.03125e-18)
(24.7359 3.61613 1.13561e-18)
(24.6802 3.63043 -1.26375e-18)
(24.6226 3.6455 1.31531e-18)
(24.5629 3.66134 1.46435e-18)
(24.5011 3.67797 -1.67441e-18)
(24.4371 3.69538 1.76648e-18)
(24.3708 3.71358 -1.00926e-18)
(24.3021 3.73256 2.15914e-18)
(24.2309 3.75233 -1.20132e-18)
(24.1572 3.77287 0)
(24.0807 3.79417 0)
(24.0013 3.81622 -3.1707e-18)
(23.919 3.839 -1.68561e-20)
(23.8336 3.86249 0)
(23.7449 3.88667 2.06691e-18)
(23.6527 3.9115 -2.2549e-18)
(23.5569 3.93696 -1.23341e-18)
(23.4572 3.96302 0)
(23.3535 3.98964 0)
(23.2455 4.01678 0)
(23.1329 4.04439 9.20555e-19)
(23.0155 4.07243 1.01149e-18)
(22.893 4.10086 1.11173e-18)
(22.7651 4.12961 1.22231e-18)
(22.6314 4.15862 -1.34437e-18)
(22.4915 4.18784 7.09779e-19)
(22.3451 4.21718 -3.14234e-20)
(22.1917 4.24657 1.7851e-18)
(22.0307 4.27591 -9.79329e-19)
(21.8618 4.30512 1.07656e-18)
(21.6843 4.33406 -1.17022e-18)
(21.4976 4.36263 -6.22039e-19)
(21.3009 4.39066 -2.16848e-18)
(21.0936 4.418 8.11592e-19)
(20.8747 4.44445 -9.13755e-19)
(20.6434 4.46977 -2.31789e-20)
(20.3986 4.49372 3.32515e-18)
(20.1392 4.51597 -1.22166e-18)
(19.8637 4.53616 2.7261e-18)
(19.5709 4.55386 -2.23413e-18)
(19.2589 4.56853 8.57033e-19)
(18.926 4.57955 -9.6909e-19)
(18.57 4.58615 1.04071e-18)
(18.1885 4.58737 -1.80699e-18)
(17.7786 4.58206 1.31126e-18)
(17.3371 4.56876 -7.7847e-19)
(16.8602 4.54567 0)
(16.3434 4.51046 1.95903e-18)
(15.7816 4.46019 2.24207e-18)
(15.1686 4.39103 2.58033e-18)
(14.4969 4.29799 7.66842e-19)
(13.7579 4.1744 -3.49451e-18)
(12.9409 4.0114 -1.05195e-18)
(12.0331 3.79674 -2.45741e-18)
(11.0197 3.51341 3.70386e-18)
(9.88115 3.13891 1.84629e-18)
(8.60049 2.63373 -4.10838e-18)
(7.14783 1.97142 -2.35638e-18)
(5.53296 0.997407 -5.59932e-18)
(3.63985 0.00760527 9.35062e-18)
(25.6601 3.39857 -2.33996e-18)
(25.6539 3.42555 -2.45221e-18)
(25.6564 3.46644 2.57487e-18)
(25.6414 3.46289 1.43842e-19)
(25.6256 3.46347 -3.22359e-18)
(25.6096 3.46914 3.39527e-18)
(25.5905 3.47299 3.82401e-18)
(25.5692 3.47613 -2.06176e-18)
(25.5464 3.47977 0)
(25.522 3.48367 2.57792e-18)
(25.4961 3.48781 2.84023e-18)
(25.4689 3.49229 -1.56419e-18)
(25.4404 3.49716 -1.72252e-18)
(25.4106 3.50246 -1.95608e-18)
(25.3796 3.50821 2.02918e-18)
(25.3473 3.51443 0)
(25.3137 3.52116 2.5663e-18)
(25.2789 3.52842 2.81454e-18)
(25.2428 3.53623 0)
(25.2054 3.54461 -1.62527e-18)
(25.1667 3.55359 0)
(25.1265 3.56319 -2.00193e-18)
(25.0849 3.57344 0)
(25.0419 3.58435 4.9186e-18)
(24.9973 3.59596 -5.25957e-18)
(24.9512 3.60828 -5.82077e-18)
(24.9034 3.62133 -3.29744e-18)
(24.8539 3.63513 1.74956e-18)
(24.8027 3.64971 -1.97895e-18)
(24.7496 3.66507 0)
(24.6947 3.68125 0)
(24.6378 3.69824 -1.32841e-18)
(24.5788 3.71607 2.77093e-18)
(24.5178 3.73474 1.53924e-18)
(24.4545 3.75426 0)
(24.3889 3.77464 0)
(24.3209 3.79587 -2.12174e-18)
(24.2505 3.81796 2.23948e-18)
(24.1774 3.84091 -1.27901e-18)
(24.1015 3.86471 5.47906e-18)
(24.0228 3.88934 3.07922e-18)
(23.9411 3.91481 4.53261e-20)
(23.8563 3.94109 -1.80412e-18)
(23.7681 3.96817 -3.59754e-20)
(23.6764 3.99603 2.21535e-18)
(23.581 4.02464 -2.39069e-18)
(23.4817 4.05399 1.35227e-18)
(23.3784 4.08404 1.37232e-20)
(23.2706 4.11477 0)
(23.1583 4.14613 -1.74396e-18)
(23.0411 4.1781 -1.91789e-18)
(22.9187 4.21064 2.10986e-18)
(22.7908 4.2437 -1.12741e-18)
(22.657 4.27723 -2.57967e-18)
(22.517 4.31118 -3.62031e-20)
(22.3703 4.34549 1.59571e-18)
(22.2165 4.38009 -1.69147e-18)
(22.0552 4.41491 -9.70353e-19)
(21.8856 4.44986 3.09763e-18)
(21.7074 4.48485 1.11985e-18)
(21.5198 4.51977 1.25686e-18)
(21.3221 4.55448 1.42551e-18)
(21.1135 4.58885 -1.55937e-18)
(20.8931 4.62269 0)
(20.6601 4.65581 0)
(20.4133 4.68798 -4.30644e-18)
(20.1516 4.71889 -1.2033e-18)
(19.8735 4.74822 0)
(19.5775 4.77556 0)
(19.262 4.80043 -1.66578e-18)
(18.925 4.82221 0)
(18.5643 4.84019 -3.14497e-18)
(18.1772 4.85344 1.15012e-18)
(17.7609 4.86085 2.7597e-20)
(17.3119 4.861 -3.73375e-18)
(16.8263 4.85211 8.34907e-19)
(16.2992 4.83188 -2.89554e-18)
(15.7253 4.79736 -3.33073e-18)
(15.0978 4.7447 -2.58149e-18)
(14.4089 4.66884 2.99015e-18)
(13.6491 4.5629 -3.5058e-18)
(12.8071 4.41773 2.07905e-18)
(11.8686 4.22044 2.49412e-18)
(10.8178 3.95325 -6.8729e-18)
(9.63283 3.59124 9.31195e-19)
(8.29542 3.09389 1.82596e-18)
(6.77286 2.42316 8.19215e-19)
(5.0785 1.43767 1.34743e-17)
(3.05582 0.359195 -1.57065e-17)
(25.6774 3.43816 -2.01448e-18)
(25.6629 3.44946 -2.36052e-18)
(25.6629 3.48453 -2.35851e-18)
(25.6475 3.483 2.79355e-18)
(25.6304 3.48283 6.42596e-20)
(25.6134 3.48818 0)
(25.5941 3.49261 6.21589e-20)
(25.5727 3.49638 -2.02114e-18)
(25.5499 3.50065 2.18711e-18)
(25.5257 3.50533 0)
(25.5001 3.51032 2.77304e-18)
(25.4732 3.51571 -2.92189e-18)
(25.445 3.52154 -3.3597e-18)
(25.4156 3.52786 1.7174e-18)
(25.385 3.53467 0)
(25.3532 3.54201 0)
(25.3202 3.5499 -2.3833e-18)
(25.2859 3.55837 -2.67287e-18)
(25.2504 3.56744 2.88319e-18)
(25.2136 3.57713 6.50984e-18)
(25.1754 3.58746 3.37775e-20)
(25.1359 3.59846 -3.85796e-18)
(25.095 3.61016 -8.95737e-20)
(25.0526 3.62257 -6.96131e-20)
(25.0088 3.63572 5.33059e-20)
(24.9633 3.64963 2.85874e-18)
(24.9163 3.66433 0)
(24.8676 3.67983 1.74673e-18)
(24.8171 3.69616 -3.7616e-18)
(24.7648 3.71333 -2.1266e-18)
(24.7107 3.73137 -9.24943e-20)
(24.6546 3.75028 -2.0705e-20)
(24.5965 3.77009 -2.76582e-18)
(24.5362 3.79081 0)
(24.4737 3.81244 0)
(24.409 3.835 -1.85256e-18)
(24.3418 3.8585 -1.60931e-20)
(24.2721 3.88292 0)
(24.1998 3.90829 0)
(24.1247 3.9346 -2.66638e-18)
(24.0467 3.96185 -1.46417e-18)
(23.9657 3.99002 3.15199e-18)
(23.8816 4.01912 3.55177e-18)
(23.794 4.04913 -1.92428e-18)
(23.703 4.08004 4.2452e-18)
(23.6082 4.11185 6.43744e-20)
(23.5095 4.14452 0)
(23.4066 4.17805 -1.41433e-18)
(23.2993 4.21241 3.05279e-18)
(23.1874 4.24757 3.43992e-18)
(23.0706 4.28353 -1.79706e-18)
(22.9485 4.32023 -2.06977e-18)
(22.8208 4.35766 2.27845e-18)
(22.6872 4.39577 0)
(22.5472 4.43453 -2.71904e-18)
(22.4006 4.47389 0)
(22.2467 4.51379 0)
(22.0851 4.55419 0)
(21.9153 4.595 -2.04886e-18)
(21.7366 4.63615 1.14821e-18)
(21.5484 4.67756 1.24856e-18)
(21.35 4.7191 0)
(21.1405 4.76067 6.51069e-20)
(20.9191 4.80211 2.0852e-20)
(20.6848 4.84325 0)
(20.4364 4.88388 1.03563e-18)
(20.1728 4.92374 1.17078e-18)
(19.8925 4.96253 -2.58474e-18)
(19.594 4.9999 0)
(19.2754 5.03537 0)
(18.9348 5.06842 0)
(18.5699 5.09834 1.01116e-18)
(18.1779 5.12428 1.13287e-18)
(17.7558 5.14516 0)
(17.2999 5.15965 -3.09447e-20)
(16.8061 5.166 5.02317e-18)
(16.2693 5.16197 9.49022e-19)
(15.6838 5.14466 2.22967e-18)
(15.0424 5.11022 -4.48879e-18)
(14.3367 5.05355 -5.01545e-20)
(13.5564 4.96768 8.76606e-19)
(12.6894 4.84324 -1.08009e-18)
(11.7199 4.66676 1.24117e-18)
(10.6307 4.41974 6.25262e-18)
(9.39764 4.07497 0)
(8.00002 3.59057 5.84471e-18)
(6.40263 2.91649 6.3261e-18)
(4.61626 1.92413 -1.09781e-17)
(2.44895 0.762001 9.86291e-18)
(25.6849 3.47106 3.9778e-18)
(25.6691 3.47274 0)
(25.6682 3.50265 2.31052e-18)
(25.6529 3.5025 5.27027e-18)
(25.635 3.50204 -2.79072e-18)
(25.6175 3.50702 -3.14828e-18)
(25.5981 3.51189 7.13617e-18)
(25.5767 3.51625 -7.76112e-18)
(25.554 3.52112 0)
(25.53 3.52653 2.42396e-18)
(25.5046 3.53235 -2.55397e-18)
(25.4781 3.53862 0)
(25.4503 3.54541 0)
(25.4214 3.55272 0)
(25.3913 3.56058 3.78107e-18)
(25.36 3.56902 0)
(25.3276 3.57806 2.33569e-18)
(25.2939 3.58772 -2.59976e-18)
(25.259 3.59803 -8.52959e-20)
(25.2228 3.60901 -3.03998e-18)
(25.1853 3.62068 -3.53134e-18)
(25.1465 3.63306 7.40122e-18)
(25.1063 3.64619 0)
(25.0647 3.66009 4.44055e-18)
(25.0216 3.67477 4.93717e-18)
(24.9769 3.69026 -9.14196e-20)
(24.9307 3.70659 2.92503e-18)
(24.8828 3.72378 0)
(24.8332 3.74185 0)
(24.7817 3.76082 4.02475e-18)
(24.7284 3.78071 -2.06077e-18)
(24.6732 3.80154 -2.28915e-18)
(24.6159 3.82333 2.59489e-18)
(24.5565 3.8461 2.85085e-18)
(24.4949 3.86984 -3.23655e-18)
(24.431 3.89459 5.19375e-18)
(24.3647 3.92036 5.72556e-20)
(24.2959 3.94713 0)
(24.2244 3.97494 -2.2812e-18)
(24.1502 4.00378 0)
(24.073 4.03365 2.75382e-18)
(23.9929 4.06456 -6.11933e-18)
(23.9095 4.0965 -1.71649e-18)
(23.8227 4.12947 -5.36635e-20)
(23.7324 4.16348 -4.1254e-18)
(23.6383 4.1985 4.4705e-18)
(23.5402 4.23454 9.63222e-20)
(23.438 4.27159 -2.64999e-18)
(23.3313 4.30963 1.4555e-18)
(23.22 4.34865 -1.60387e-18)
(23.1036 4.38864 1.81593e-18)
(22.982 4.42958 -6.12063e-20)
(22.8547 4.47144 -8.61931e-20)
(22.7214 4.51421 2.35999e-18)
(22.5817 4.55785 2.67529e-18)
(22.4352 4.60234 -1.49366e-18)
(22.2815 4.64764 -6.46074e-20)
(22.1199 4.6937 -7.16734e-20)
(21.95 4.74049 3.88873e-18)
(21.7711 4.78792 -1.11414e-18)
(21.5826 4.83595 -8.85797e-20)
(21.3836 4.88448 3.96709e-18)
(21.1735 4.93342 2.99127e-18)
(20.9513 4.98263 -4.93255e-18)
(20.7159 5.03199 -1.87421e-18)
(20.4662 5.08131 2.00095e-18)
(20.201 5.13038 2.29094e-18)
(19.9188 5.17893 3.3969e-20)
(19.6179 5.22664 0)
(19.2967 5.27311 -1.63117e-18)
(18.9528 5.31784 2.66993e-18)
(18.584 5.36019 -9.87254e-19)
(18.1874 5.39939 0)
(17.7598 5.43444 -1.3214e-18)
(17.2974 5.46404 1.43459e-18)
(16.7958 5.48655 -3.36147e-18)
(16.2497 5.4998 -3.82161e-18)
(15.6528 5.50097 4.40922e-18)
(14.9977 5.48626 5.13909e-18)
(14.2754 5.45063 -1.86989e-20)
(13.4746 5.38705 3.56334e-18)
(12.5821 5.28601 1.09228e-18)
(11.581 5.13362 -6.42081e-18)
(10.4519 4.91072 -3.21041e-18)
(9.16794 4.58806 0)
(7.70553 4.12197 -5.46322e-18)
(6.0255 3.45112 -8.79877e-18)
(4.12388 2.46064 1.41899e-17)
(1.81902 1.21487 0)
(25.6909 3.49808 0)
(25.6741 3.49447 0)
(25.6725 3.52015 0)
(25.6576 3.52107 -2.53535e-18)
(25.6393 3.52067 -2.88815e-18)
(25.6216 3.52541 3.04247e-18)
(25.6022 3.53066 -6.35556e-20)
(25.581 3.5356 -3.72989e-18)
(25.5585 3.54109 -4.10659e-18)
(25.5347 3.54722 0)
(25.5098 3.55385 -4.96886e-18)
(25.4836 3.561 0)
(25.4563 3.56871 3.00475e-18)
(25.4279 3.57701 0)
(25.3984 3.58591 -3.71657e-18)
(25.3677 3.59543 4.13287e-18)
(25.3358 3.6056 3.505e-20)
(25.3028 3.61644 0)
(25.2685 3.62797 2.65358e-18)
(25.2331 3.64022 -2.94811e-18)
(25.1963 3.65321 -1.02659e-19)
(25.1583 3.66697 -3.52493e-18)
(25.1188 3.68151 3.87455e-18)
(25.078 3.69687 -8.62449e-18)
(25.0357 3.71307 -2.39969e-18)
(24.9919 3.73013 2.52833e-20)
(24.9465 3.74808 -2.80834e-18)
(24.8995 3.76694 0)
(24.8507 3.78674 3.53425e-18)
(24.8002 3.8075 -3.5966e-18)
(24.7478 3.82923 -1.98254e-18)
(24.6935 3.85198 4.58822e-18)
(24.6371 3.87574 -5.12773e-18)
(24.5787 3.90055 -2.91661e-18)
(24.518 3.92641 -1.22605e-19)
(24.4551 3.95335 6.5835e-18)
(24.3897 3.98138 0)
(24.3218 4.01052 0)
(24.2513 4.04077 -2.01505e-20)
(24.178 4.07215 -1.51947e-20)
(24.1018 4.10467 -2.71103e-18)
(24.0225 4.13833 -2.72017e-20)
(23.94 4.17313 -1.67315e-18)
(23.8541 4.20909 3.44514e-18)
(23.7646 4.24621 1.92004e-18)
(23.6714 4.28449 0)
(23.5741 4.32393 0)
(23.4727 4.36454 2.65864e-18)
(23.3667 4.4063 -5.71e-18)
(23.2561 4.44921 0)
(23.1404 4.49328 -5.21057e-18)
(23.0193 4.5385 -2.01044e-18)
(22.8926 4.58485 2.07082e-18)
(22.7598 4.63233 0)
(22.6206 4.68092 2.54067e-18)
(22.4745 4.73061 -1.44764e-18)
(22.3211 4.78138 3.13545e-18)
(22.1597 4.8332 -5.12498e-18)
(21.9899 4.88604 -3.63654e-20)
(21.8111 4.93987 0)
(21.6224 4.99463 -2.3698e-18)
(21.4233 5.05027 -2.62804e-18)
(21.2128 5.10671 1.47874e-18)
(20.99 5.16386 2.18487e-20)
(20.7538 5.22162 1.75442e-18)
(20.5032 5.27983 -4.01811e-18)
(20.2367 5.33833 1.04309e-18)
(19.953 5.39689 2.53161e-18)
(19.6502 5.45524 -1.36601e-18)
(19.3266 5.51303 0)
(18.9799 5.56983 3.49586e-18)
(18.6076 5.62507 3.94411e-18)
(18.2069 5.67805 0)
(17.7742 5.72785 -1.30655e-18)
(17.3058 5.77325 2.33841e-20)
(16.7968 5.81272 -4.92771e-18)
(16.2418 5.8442 2.85923e-18)
(15.6342 5.86498 2.17022e-18)
(14.9658 5.87136 -1.02853e-17)
(14.227 5.85836 -1.55833e-18)
(13.406 5.81898 -9.22276e-19)
(12.4881 5.74363 -4.35911e-18)
(11.4548 5.61808 5.23151e-18)
(10.2848 5.42258 -5.84197e-18)
(8.94764 5.12593 1.04715e-18)
(7.41654 4.68231 0)
(5.64395 4.02196 0)
(3.59391 3.04149 1.9364e-18)
(1.18469 1.69394 -6.44853e-18)
(25.6958 3.52056 0)
(25.678 3.51417 0)
(25.6761 3.53646 0)
(25.6618 3.53843 2.00978e-19)
(25.6435 3.53843 -2.68792e-18)
(25.6257 3.54314 6.02066e-18)
(25.6065 3.54879 -6.57588e-18)
(25.5856 3.55434 1.09994e-17)
(25.5633 3.56047 1.25194e-19)
(25.54 3.56731 0)
(25.5154 3.57475 4.89815e-18)
(25.4898 3.58276 2.7226e-18)
(25.463 3.5914 -5.83145e-18)
(25.4351 3.60067 0)
(25.4062 3.61059 3.6172e-18)
(25.3761 3.62119 -3.81238e-18)
(25.3449 3.63248 4.16379e-20)
(25.3126 3.64448 -4.60724e-18)
(25.2791 3.65722 2.42871e-20)
(25.2443 3.67073 9.26164e-20)
(25.2084 3.68502 -1.11674e-19)
(25.1711 3.70012 6.83925e-18)
(25.1325 3.71607 -1.01783e-19)
(25.0925 3.73287 8.28736e-18)
(25.0511 3.75057 0)
(25.0082 3.76918 0)
(24.9637 3.78873 0)
(24.9176 3.80925 0)
(24.8698 3.83076 -6.67231e-18)
(24.8202 3.85329 7.28305e-18)
(24.7688 3.87687 8.05789e-18)
(24.7155 3.90151 -2.21216e-18)
(24.6601 3.92725 -4.86544e-18)
(24.6027 3.95409 2.61258e-18)
(24.5431 3.98207 0)
(24.4812 4.0112 -9.71601e-18)
(24.4168 4.0415 -3.628e-18)
(24.35 4.073 -1.9905e-20)
(24.2805 4.1057 0)
(24.2082 4.13963 6.24362e-20)
(24.133 4.1748 0)
(24.0547 4.21122 -2.89645e-18)
(23.9732 4.2489 6.21958e-18)
(23.8883 4.28787 -3.47366e-18)
(23.7998 4.32812 -1.92653e-18)
(23.7075 4.36968 -8.25387e-20)
(23.6112 4.41254 2.2419e-18)
(23.5107 4.45673 0)
(23.4057 4.50224 -2.73474e-18)
(23.2959 4.54908 0)
(23.181 4.59727 6.72151e-18)
(23.0607 4.6468 -1.89244e-18)
(22.9348 4.69769 2.00535e-18)
(22.8027 4.74993 2.30353e-18)
(22.6642 4.80352 -4.87802e-18)
(22.5187 4.85847 -2.69878e-18)
(22.3658 4.91478 0)
(22.2049 4.97243 3.39954e-18)
(22.0355 5.03141 -1.88155e-18)
(21.857 5.09171 0)
(21.6685 5.15331 -2.26475e-18)
(21.4695 5.21617 0)
(21.2589 5.28024 0)
(21.0359 5.34547 -1.60681e-18)
(20.7994 5.41179 3.50647e-18)
(20.5482 5.47907 2.05493e-18)
(20.2809 5.54721 9.49089e-20)
(19.9961 5.61602 7.04577e-20)
(19.6919 5.6853 0)
(19.3665 5.75473 0)
(19.0175 5.82397 -5.16281e-18)
(18.6425 5.89252 -3.86173e-18)
(18.2382 5.95978 -6.58353e-18)
(17.8013 6.0249 -1.29546e-18)
(17.3276 6.08681 4.31487e-18)
(16.8122 6.14408 3.3294e-18)
(16.2492 6.1948 9.78749e-19)
(15.6317 6.23638 -5.53148e-18)
(14.9511 6.2653 5.2006e-18)
(14.1971 6.2767 0)
(13.3568 6.26371 -3.6208e-18)
(12.4147 6.21676 6.69216e-18)
(11.3503 6.12142 -2.65303e-18)
(10.14 5.95758 6.90865e-18)
(8.74946 5.69237 0)
(7.14863 5.27827 0)
(5.27499 4.64287 1.25218e-18)
(3.07038 3.67885 -2.45286e-18)
(0.588185 2.19884 -3.40784e-18)
(25.7003 3.53931 0)
(25.6817 3.53187 0)
(25.6794 3.55146 -4.26632e-18)
(25.6657 3.55451 9.67876e-18)
(25.6476 3.55519 -1.05127e-17)
(25.6299 3.56005 -5.77049e-18)
(25.611 3.56616 -3.27181e-18)
(25.5904 3.57236 3.48717e-18)
(25.5686 3.57917 1.6435e-19)
(25.5456 3.58675 -8.51489e-18)
(25.5216 3.59499 -3.11806e-20)
(25.4965 3.60387 -5.06626e-18)
(25.4703 3.61342 -2.68186e-18)
(25.443 3.62366 1.80604e-20)
(25.4147 3.6346 1.23468e-19)
(25.3853 3.64625 -7.49824e-18)
(25.3549 3.65864 8.09005e-18)
(25.3233 3.67179 1.65767e-19)
(25.2905 3.68573 -2.33269e-18)
(25.2566 3.70047 -8.05919e-18)
(25.2215 3.71605 -3.04434e-18)
(25.1851 3.73249 -3.24966e-18)
(25.1474 3.74981 -3.67789e-18)
(25.1083 3.76804 2.97015e-20)
(25.0678 3.78722 -1.30829e-17)
(25.0258 3.80736 7.17915e-18)
(24.9823 3.8285 -5.19866e-18)
(24.9372 3.85066 -1.07443e-19)
(24.8904 3.87387 -3.55278e-20)
(24.8418 3.89816 7.03013e-18)
(24.7915 3.92356 -7.70013e-18)
(24.7392 3.95009 -4.30292e-18)
(24.685 3.97778 9.33599e-18)
(24.6286 4.00665 -2.51254e-18)
(24.5701 4.03674 -5.64891e-18)
(24.5093 4.06805 6.17558e-18)
(24.446 4.10062 3.45099e-18)
(24.3803 4.13448 3.7935e-18)
(24.3119 4.16963 -4.05075e-18)
(24.2408 4.20611 2.29256e-18)
(24.1667 4.24393 0)
(24.0896 4.28312 9.77358e-20)
(24.0092 4.3237 -2.95093e-18)
(23.9254 4.36568 3.26171e-18)
(23.838 4.40908 1.85939e-18)
(23.7468 4.45392 -4.01321e-18)
(23.6516 4.50023 2.16523e-18)
(23.5521 4.54801 2.48213e-18)
(23.4482 4.59729 -2.64929e-18)
(23.3394 4.64809 2.8956e-18)
(23.2255 4.70042 -6.50625e-18)
(23.1063 4.7543 1.83327e-18)
(22.9813 4.80976 -1.94322e-18)
(22.8501 4.86679 -2.23439e-18)
(22.7125 4.92544 7.28515e-18)
(22.5678 4.9857 -5.25865e-18)
(22.4157 5.04759 -1.5101e-18)
(22.2556 5.11112 -1.62803e-18)
(22.0869 5.17631 1.85291e-18)
(21.9089 5.24317 -7.99977e-18)
(21.721 5.31169 4.44418e-18)
(21.5224 5.38186 -2.53579e-18)
(21.3122 5.45368 4.02146e-18)
(21.0893 5.52712 4.54484e-18)
(20.8529 5.60213 0)
(20.6015 5.67866 0)
(20.3339 5.75663 2.19207e-18)
(20.0484 5.83592 -2.35136e-18)
(19.7434 5.91636 2.66975e-18)
(19.4168 5.99774 0)
(19.0662 6.07978 6.29217e-20)
(18.689 6.16206 -3.84058e-18)
(18.282 6.24407 -1.05117e-18)
(17.8416 6.32512 1.22592e-18)
(17.3635 6.40424 0)
(16.8426 6.48016 4.96196e-18)
(16.2728 6.55114 -1.8623e-18)
(15.6466 6.61478 1.13926e-18)
(14.955 6.66778 -2.60776e-18)
(14.1872 6.70552 1.50485e-18)
(13.3292 6.72132 3.7203e-18)
(12.3643 6.70585 0)
(11.2702 6.64467 0)
(10.021 6.51762 7.15005e-18)
(8.57791 6.29058 -9.57491e-18)
(6.90774 5.91628 0)
(4.9255 5.32102 0)
(2.61478 4.36674 -2.66574e-17)
(-0.043779 2.79679 -3.19524e-17)
(25.7046 3.55503 3.56794e-18)
(25.6853 3.54768 -9.08936e-21)
(25.6825 3.56515 -4.24833e-18)
(25.6694 3.56927 0)
(25.6517 3.57084 -5.26681e-18)
(25.6341 3.57606 1.12684e-17)
(25.6156 3.58271 -6.12306e-18)
(25.5955 3.5896 1.19595e-19)
(25.5741 3.59712 -3.66626e-18)
(25.5517 3.60546 0)
(25.5282 3.61453 4.57121e-18)
(25.5037 3.62428 5.02198e-18)
(25.4781 3.63474 -2.62138e-18)
(25.4516 3.64594 2.73036e-18)
(25.424 3.65788 6.54823e-18)
(25.3953 3.67058 -7.23408e-18)
(25.3656 3.68406 3.76226e-18)
(25.3348 3.69835 4.41812e-18)
(25.3029 3.71346 0)
(25.2699 3.72942 1.05053e-17)
(25.2356 3.74627 -5.79021e-18)
(25.2001 3.76402 9.45326e-18)
(25.1633 3.7827 0)
(25.1252 3.80234 -3.91488e-18)
(25.0857 3.82298 4.10311e-18)
(25.0447 3.84463 4.5374e-18)
(25.0022 3.86734 2.58292e-18)
(24.9582 3.89112 -2.83863e-18)
(24.9125 3.91602 3.1201e-18)
(24.865 3.94205 0)
(24.8158 3.96926 3.64887e-18)
(24.7646 3.99767 -1.55193e-19)
(24.7115 4.0273 1.96252e-18)
(24.6563 4.05819 -1.00092e-19)
(24.599 4.09036 8.17456e-18)
(24.5394 4.12385 1.20582e-19)
(24.4773 4.15869 1.32397e-19)
(24.4128 4.19489 -7.07353e-18)
(24.3457 4.2325 4.02031e-18)
(24.2757 4.27153 -2.22369e-18)
(24.2029 4.31201 -9.64742e-20)
(24.127 4.35397 5.26011e-18)
(24.0478 4.39743 -2.96145e-18)
(23.9653 4.44243 -3.25e-18)
(23.8791 4.48899 -1.29137e-19)
(23.7891 4.53714 9.58219e-18)
(23.6951 4.58689 -4.26739e-18)
(23.5969 4.6383 2.30369e-18)
(23.4941 4.69137 0)
(23.3865 4.74614 -2.81244e-18)
(23.2738 4.80264 6.29576e-18)
(23.1557 4.8609 1.77531e-18)
(23.0319 4.92095 -3.70506e-18)
(22.9018 4.98282 -2.07946e-18)
(22.7652 5.04655 0)
(22.6216 5.11216 2.62697e-18)
(22.4705 5.17969 1.02001e-19)
(22.3114 5.24917 1.02256e-19)
(22.1436 5.32064 0)
(21.9665 5.39412 7.82585e-18)
(21.7794 5.46965 0)
(21.5815 5.54723 2.38794e-18)
(21.3719 5.6269 -2.72404e-18)
(21.1496 5.70867 -3.03641e-18)
(20.9134 5.79253 -1.59687e-18)
(20.6623 5.87848 -1.83555e-18)
(20.3947 5.96647 0)
(20.1091 6.05645 0)
(19.8036 6.14834 -2.67655e-18)
(19.4762 6.24198 -1.52942e-18)
(19.1245 6.33716 1.72046e-18)
(18.7456 6.4336 3.8617e-18)
(18.3365 6.53089 6.62054e-18)
(17.8933 6.62846 -2.42746e-18)
(17.4114 6.72552 2.81884e-18)
(16.8857 6.82096 -5.92461e-20)
(16.3096 6.91327 3.76772e-18)
(15.6755 7.0003 0)
(14.9738 7.07902 0)
(14.1928 7.14515 -6.17094e-18)
(13.3178 7.19236 1.93057e-18)
(12.3306 7.21171 1.14036e-18)
(11.207 7.18904 1.41008e-18)
(9.9185 7.10458 -5.62353e-18)
(8.42158 6.92359 -2.38588e-18)
(6.67892 6.60176 1.3244e-17)
(4.5819 6.05387 -2.22515e-17)
(2.18233 5.11293 -2.98655e-18)
(-0.760035 3.50522 1.91142e-19)
(25.7089 3.56823 2.79836e-18)
(25.689 3.56177 0)
(25.6856 3.57758 4.1565e-18)
(25.6731 3.58275 0)
(25.6559 3.58537 5.11703e-18)
(25.6386 3.59111 -5.39089e-18)
(25.6205 3.59837 3.01732e-18)
(25.6009 3.60601 6.69052e-18)
(25.58 3.61429 -7.24082e-18)
(25.5582 3.62341 -1.60668e-19)
(25.5353 3.63331 4.27072e-18)
(25.5115 3.64394 0)
(25.4866 3.65532 5.32708e-18)
(25.4607 3.66747 -5.84991e-18)
(25.4339 3.6804 -6.33942e-18)
(25.406 3.69414 3.38575e-18)
(25.3772 3.7087 -1.36306e-19)
(25.3472 3.7241 0)
(25.3162 3.74037 -4.52123e-18)
(25.284 3.75754 -1.01063e-17)
(25.2507 3.77563 2.82362e-18)
(25.2162 3.79467 -6.10004e-18)
(25.1804 3.81469 -3.2928e-18)
(25.1433 3.83573 0)
(25.1048 3.8578 3.9758e-18)
(25.0649 3.88095 4.36912e-18)
(25.0235 3.9052 0)
(24.9806 3.93059 0)
(24.936 3.95715 0)
(24.8897 3.98491 1.28467e-19)
(24.8417 4.01391 -3.48364e-18)
(24.7917 4.04417 -7.83664e-18)
(24.7398 4.07573 -4.38611e-18)
(24.6859 4.10862 4.65613e-18)
(24.6298 4.14288 -2.56012e-18)
(24.5714 4.17854 -2.81533e-18)
(24.5107 4.21562 3.21952e-18)
(24.4475 4.25417 2.59916e-19)
(24.3816 4.29422 -3.74069e-18)
(24.313 4.33579 -6.26561e-18)
(24.2415 4.37893 2.26443e-18)
(24.1669 4.42366 0)
(24.0891 4.47001 -2.8569e-18)
(24.0079 4.51804 3.12303e-18)
(23.9231 4.56775 -3.44655e-18)
(23.8345 4.6192 -3.79655e-18)
(23.7418 4.67243 -4.05042e-18)
(23.6449 4.72745 0)
(23.5435 4.78433 -2.46315e-18)
(23.4372 4.84308 2.80472e-18)
(23.3259 4.90377 -9.4608e-20)
(23.2091 4.96643 0)
(23.0865 5.03109 1.87491e-18)
(22.9578 5.09783 4.1191e-18)
(22.8225 5.16667 -4.55724e-18)
(22.6802 5.23766 2.47014e-18)
(22.5303 5.31088 5.68323e-18)
(22.3724 5.38635 -6.08313e-18)
(22.2057 5.46414 0)
(22.0297 5.5443 -3.86608e-18)
(21.8437 5.62689 -4.1821e-18)
(21.6468 5.71197 -2.39173e-18)
(21.4381 5.79958 -2.69195e-18)
(21.2166 5.88977 1.37428e-18)
(20.9812 5.98259 4.93013e-18)
(20.7307 6.07808 -1.88058e-18)
(20.4635 6.17624 6.08434e-18)
(20.1781 6.2771 -2.3707e-18)
(19.8726 6.38062 3.88643e-18)
(19.5449 6.48674 1.46675e-18)
(19.1926 6.59535 3.36777e-18)
(18.8127 6.70626 0)
(18.402 6.81921 2.20964e-18)
(17.9565 6.93376 -1.14466e-18)
(17.4717 7.0493 -5.69754e-18)
(16.9419 7.16493 -1.4976e-19)
(16.3605 7.27937 -3.93708e-18)
(15.7193 7.39076 1.0301e-18)
(15.0084 7.49641 2.64023e-18)
(14.2153 7.59243 1.10598e-17)
(13.3243 7.67295 -1.96824e-18)
(12.3159 7.72953 -1.18368e-17)
(11.1637 7.74849 -5.95486e-18)
(9.8365 7.71065 7.86017e-18)
(8.28541 7.58128 2.22092e-17)
(6.46764 7.31886 -1.7473e-17)
(4.26422 6.81303 3.26481e-17)
(1.75636 5.9095 -1.97944e-18)
(-1.49797 4.30206 2.875e-17)
(25.713 3.57931 5.61216e-18)
(25.6929 3.57429 3.94994e-18)
(25.6888 3.58884 4.01744e-18)
(25.6769 3.59502 0)
(25.6601 3.59878 0)
(25.6432 3.60519 0)
(25.6256 3.61312 5.94615e-18)
(25.6065 3.62155 -3.02755e-18)
(25.5863 3.63063 3.44087e-18)
(25.565 3.64056 -3.91413e-18)
(25.5429 3.6513 4.12463e-18)
(25.5197 3.66281 4.70819e-18)
(25.4956 3.67511 -4.96181e-18)
(25.4705 3.68821 0)
(25.4445 3.70213 2.97799e-18)
(25.4175 3.71689 -2.53179e-21)
(25.3895 3.7325 -3.60252e-18)
(25.3604 3.74901 -3.9554e-18)
(25.3303 3.76642 4.50714e-18)
(25.2991 3.78477 1.81207e-19)
(25.2668 3.80409 2.72852e-18)
(25.2333 3.8244 1.10918e-19)
(25.1986 3.84574 3.28316e-18)
(25.1625 3.86814 -3.47332e-18)
(25.1252 3.89163 -7.94071e-18)
(25.0864 3.91625 4.0313e-18)
(25.0462 3.94203 4.80229e-18)
(25.0044 3.969 -7.49264e-18)
(24.961 3.9972 -2.78439e-18)
(24.916 4.02666 3.17957e-18)
(24.8691 4.05743 -3.36458e-18)
(24.8205 4.08952 1.54756e-19)
(24.7699 4.123 -4.06792e-18)
(24.7172 4.15787 -9.11902e-18)
(24.6625 4.19419 2.55454e-18)
(24.6055 4.232 -8.45616e-21)
(24.5461 4.27132 -1.23638e-19)
(24.4843 4.3122 9.94966e-18)
(24.4198 4.35467 3.75304e-18)
(24.3526 4.39878 2.21611e-18)
(24.2826 4.44456 -2.18282e-18)
(24.2094 4.49205 0)
(24.1331 4.54129 2.7568e-18)
(24.0534 4.59232 1.09523e-19)
(23.97 4.64519 3.21596e-18)
(23.8829 4.69995 3.68876e-18)
(23.7918 4.75662 -3.76458e-18)
(23.6964 4.81527 0)
(23.5964 4.87595 -1.1807e-20)
(23.4917 4.93869 -1.10133e-19)
(23.3819 5.00357 -3.12537e-18)
(23.2666 5.07062 6.53822e-18)
(23.1456 5.13991 9.12013e-21)
(23.0184 5.21151 -3.92701e-18)
(22.8846 5.28547 -2.08844e-18)
(22.7438 5.36186 -4.81055e-18)
(22.5954 5.44077 2.67182e-18)
(22.4389 5.52225 -2.19633e-20)
(22.2737 5.60638 6.57467e-18)
(22.0992 5.69325 -1.90326e-18)
(21.9146 5.78294 6.232e-18)
(21.719 5.87554 0)
(21.5116 5.97113 0)
(21.2914 6.06981 0)
(21.0571 6.17165 -3.17123e-18)
(20.8076 6.27674 0)
(20.5414 6.38518 -4.10487e-18)
(20.2568 6.49702 4.49327e-18)
(19.952 6.6123 -1.31663e-18)
(19.6247 6.73105 -1.52137e-18)
(19.2725 6.85328 -1.68863e-18)
(18.8924 6.97892 3.60753e-18)
(18.481 7.10781 2.09086e-18)
(18.0344 7.23969 4.84063e-18)
(17.5476 7.37413 0)
(17.0151 7.51049 -3.30983e-18)
(16.4298 7.64773 -1.9613e-18)
(15.7832 7.78433 2.19025e-18)
(15.065 7.91799 -1.37079e-18)
(14.2619 8.04528 -4.91298e-18)
(13.3575 8.16092 0)
(12.3307 8.25711 2.03448e-19)
(11.1531 8.32087 4.72256e-18)
(9.79104 8.33406 -1.264e-17)
(8.18858 8.26261 -1.68538e-17)
(6.29856 8.06304 -2.026e-17)
(3.97921 7.61551 2.79388e-17)
(1.33911 6.78513 -2.33237e-17)
(-2.23316 5.19101 -1.06889e-17)
(25.717 3.58861 3.36972e-18)
(25.697 3.58537 -1.161e-17)
(25.6921 3.599 -4.01428e-18)
(25.6806 3.60616 0)
(25.6645 3.61112 0)
(25.6479 3.61831 -5.10093e-18)
(25.6308 3.62697 -1.13185e-17)
(25.6124 3.63621 6.06947e-18)
(25.5928 3.64613 -3.43839e-18)
(25.5723 3.65689 0)
(25.5508 3.66848 3.98154e-18)
(25.5284 3.68088 0)
(25.5051 3.69408 0)
(25.4809 3.70812 0)
(25.4557 3.72302 -2.98846e-18)
(25.4296 3.73879 6.43385e-18)
(25.4025 3.75545 3.60072e-18)
(25.3744 3.77304 -7.33974e-21)
(25.3453 3.79157 8.5246e-18)
(25.3151 3.81108 -4.39592e-18)
(25.2839 3.8316 2.62279e-18)
(25.2514 3.85317 -8.40784e-18)
(25.2178 3.8758 -1.26805e-19)
(25.1829 3.89954 6.80998e-18)
(25.1467 3.92443 -3.82094e-18)
(25.1091 3.95049 -8.38495e-18)
(25.0701 3.97777 1.34651e-17)
(25.0296 4.0063 1.97005e-19)
(24.9875 4.03611 2.78778e-18)
(24.9437 4.06726 -5.87803e-18)
(24.8982 4.09976 3.36523e-18)
(24.8509 4.13367 3.70014e-18)
(24.8017 4.16903 0)
(24.7504 4.20587 6.71612e-18)
(24.6971 4.24424 -7.09073e-18)
(24.6415 4.28417 -2.59914e-18)
(24.5836 4.32571 2.98385e-18)
(24.5233 4.36889 -3.14682e-18)
(24.4603 4.41378 -3.46997e-18)
(24.3947 4.4604 -3.81583e-18)
(24.3261 4.5088 2.19132e-18)
(24.2546 4.55903 -2.31693e-18)
(24.1798 4.61114 -1.08668e-19)
(24.1017 4.66518 2.81323e-18)
(24.02 4.72119 -6.32292e-18)
(23.9345 4.77923 3.4193e-18)
(23.845 4.83935 3.91991e-18)
(23.7512 4.90161 6.33449e-18)
(23.653 4.96608 -4.59828e-18)
(23.55 5.0328 2.64671e-18)
(23.4418 5.10185 -5.6148e-18)
(23.3283 5.1733 3.10631e-18)
(23.209 5.24721 -3.56408e-18)
(23.0835 5.32367 5.92746e-18)
(22.9515 5.40275 6.88614e-20)
(22.8124 5.48454 -1.76878e-20)