/*--------------------------------*- C++ -*----------------------------------*\
  =========                 |
  \\      /  F ield         | OpenFOAM: The Open Source CFD Toolbox
   \\    /   O peration     | Website:  https://openfoam.org
    \\  /    A nd           | Version:  11
     \\/     M anipulation  |
\*---------------------------------------------------------------------------*/
FoamFile
{
    format      ascii;
    class       volScalarField;
    location    "400";
    object      p;
}
// * * * * * * * * * * * * * * * * * * * * * * * * * * * * * * * * * * * * * //

dimensions      [0 2 -2 0 0 0 0];

internalField   nonuniform List<scalar> 
31595
(
12.524
8.47827
9.33986
9.73796
10.3361
10.6395
11.2215
11.7092
12.27
12.827
13.4239
14.0356
14.6768
15.3415
16.0342
16.7542
17.5035
18.2826
19.093
19.9356
20.8115
21.7218
22.6677
23.6502
24.6704
25.7294
26.8282
27.9682
29.1503
30.3757
31.6456
32.9612
34.324
35.7352
37.1963
38.7088
40.2745
41.8951
43.5724
45.3087
47.1062
48.9674
50.8949
52.8917
54.9607
57.1054
59.3294
61.6366
64.0311
66.5175
69.1004
71.785
74.5767
77.4815
80.5055
83.6554
86.9382
90.3618
93.934
97.6637
101.56
105.634
109.894
114.354
119.026
123.923
129.059
134.45
140.113
146.067
152.33
158.925
165.874
173.202
180.935
189.1
197.728
206.847
216.487
226.673
237.426
248.753
260.641
273.036
285.826
298.728
311.45
322.654
332.692
10.4109
9.09073
8.82059
9.62661
10.1477
10.5476
11.0594
11.5813
12.1175
12.6734
13.2545
13.8572
14.4844
15.1365
15.815
16.5206
17.2547
18.0181
18.8122
19.6379
20.4963
21.3886
22.3158
23.279
24.2794
25.318
26.3961
27.5146
28.6748
29.8781
31.1256
32.4185
33.7583
35.1463
36.5843
38.0737
39.6164
41.2141
42.8688
44.5828
46.3584
48.1981
50.1046
52.0809
54.13
56.2556
58.4611
60.7505
63.128
65.5982
68.1659
70.8362
73.6146
76.5071
79.52
82.6599
85.9342
89.3506
92.9172
96.6429
100.537
104.611
108.874
113.34
118.019
122.928
128.08
133.491
139.179
145.163
151.464
158.105
165.108
172.5
180.31
188.566
197.301
206.547
216.335
226.695
237.651
249.215
261.376
274.081
287.212
300.478
313.525
324.998
334.858
9.3916
9.04203
8.64058
9.4198
9.98955
10.4128
10.9027
11.4248
11.9518
12.4976
13.066
13.6565
14.2698
14.9077
15.5712
16.2613
16.9792
17.7259
18.5026
19.3103
20.1502
21.0233
21.9307
22.8735
23.8529
24.8699
25.9258
27.0218
28.159
29.3387
30.5621
31.8308
33.1461
34.5094
35.9224
37.3868
38.9043
40.4769
42.1066
43.7958
45.5467
47.362
49.2444
51.197
53.2228
55.3254
57.5085
59.7759
62.1321
64.5814
67.1287
69.7794
72.5389
75.4133
78.4087
81.5322
84.791
88.1929
91.7463
95.4602
99.3443
103.409
107.665
112.126
116.804
121.713
126.869
132.288
137.988
143.99
150.314
156.985
164.027
171.468
179.337
187.666
196.49
205.843
215.761
226.277
237.418
249.203
261.623
274.63
288.098
301.74
315.125
326.919
336.593
8.97637
8.90511
8.52877
9.23089
9.82923
10.2599
10.7359
11.2484
11.7666
12.3
12.8549
13.4313
14.0299
14.6522
15.2996
15.973
16.6736
17.4025
18.1607
18.9493
19.7695
20.6222
21.5087
22.4299
23.3871
24.3814
25.414
26.4861
27.5989
28.7537
29.9519
31.1949
32.484
33.821
35.2073
36.645
38.1356
39.6811
41.2838
42.9459
44.6699
46.4583
48.314
50.24
52.2394
54.3159
56.4732
58.7151
61.0461
63.4706
65.9936
68.6203
71.3564
74.2077
77.1807
80.2824
83.52
86.9015
90.4354
94.1307
97.9975
102.046
106.288
110.736
115.402
120.303
125.452
130.868
136.57
142.577
148.912
155.599
162.664
170.137
178.049
186.433
195.326
204.766
214.791
225.44
236.744
248.726
261.383
274.673
288.466
302.484
316.217
328.367
337.864
8.72874
8.80125
8.43715
9.06752
9.6681
10.0993
10.559
11.0576
11.5641
12.0834
12.6232
13.1842
13.7667
14.3724
15.0026
15.6582
16.3404
17.0503
17.789
18.5574
19.3568
20.1881
21.0525
21.9511
22.885
23.8554
24.8634
25.9104
26.9976
28.1262
29.2977
30.5134
31.7751
33.0841
34.4423
35.8512
37.313
38.8296
40.4032
42.036
43.7307
45.4897
47.316
49.2126
51.1829
53.2301
55.3583
57.5713
59.8734
62.2694
64.764
67.3625
70.0705
72.8943
75.8401
78.9148
82.126
85.4816
88.9902
92.661
96.504
100.53
104.75
109.177
113.825
118.709
123.844
129.249
134.942
140.944
147.279
153.971
161.049
168.542
176.484
184.909
193.858
203.369
213.487
224.252
235.702
247.866
260.745
274.305
288.413
302.801
316.888
329.43
338.646
8.56542
8.72943
8.36148
8.91962
9.50653
9.93106
10.3717
10.8528
11.3445
11.848
12.3712
12.9152
13.4805
14.0683
14.6801
15.3168
15.9796
16.6694
17.3874
18.1346
18.9121
19.7209
20.5621
21.4368
22.3462
23.2915
24.2738
25.2943
26.3545
27.4556
28.5989
29.7861
31.0187
32.2981
33.6262
35.0048
36.4359
37.9214
39.4637
41.065
42.7278
44.4549
46.2491
48.1135
50.0514
52.0663
54.162
56.3425
58.6121
60.9754
63.4374
66.0034
68.679
71.4702
74.3836
77.4262
80.6053
83.929
87.4061
91.0457
94.8578
98.8536
103.045
107.444
112.064
116.922
122.033
127.416
133.089
139.075
145.397
152.082
159.158
166.656
174.611
183.06
192.044
201.608
211.796
222.655
234.227
246.547
259.622
273.427
287.829
302.571
317.014
329.993
338.766
8.42713
8.66275
8.29276
8.77858
9.34156
9.75438
10.1734
10.634
11.1084
11.5944
12.0993
12.625
13.1716
13.7405
14.3327
14.9495
15.5917
16.2604
16.9567
17.6815
18.436
19.2212
20.038
20.8878
21.7715
22.6903
23.6455
24.6383
25.6701
26.7422
27.8559
29.0128
30.2145
31.4626
32.7589
34.1051
35.5034
36.9557
38.4642
40.0315
41.6599
43.3523
45.1114
46.9404
48.8427
50.8216
52.8811
55.025
57.2579
59.5842
62.0089
64.5375
67.1753
69.9285
72.8038
75.808
78.9484
82.2334
85.6715
89.2722
93.0454
97.0024
101.155
105.515
110.098
114.918
119.993
125.34
130.98
136.934
143.228
149.887
156.941
164.422
172.367
180.814
189.807
199.392
209.618
220.535
232.19
244.624
257.852
271.858
286.511
301.567
316.346
329.638
338.277
8.29418
8.58671
8.22213
8.63765
9.16955
9.56701
9.96307
10.4008
10.8556
11.3224
11.8077
12.3138
12.8407
13.3894
13.961
14.5567
15.1774
15.824
16.4975
17.1989
17.9292
18.6896
19.4809
20.3044
21.1612
22.0524
22.9792
23.943
24.9449
25.9865
27.0691
28.1941
29.3633
30.5783
31.8408
33.1526
34.5159
35.9327
37.4053
38.9359
40.5273
42.1821
43.9032
45.6937
47.5569
49.4964
51.5159
53.6194
55.8114
58.0963
60.4791
62.9651
65.5599
68.2697
71.1008
74.0604
77.1558
80.3951
83.787
87.3408
91.0668
94.9758
99.0798
103.392
107.926
112.697
117.723
123.021
128.613
134.52
140.767
147.381
154.393
161.836
169.746
178.165
187.137
196.71
206.937
217.872
229.566
242.066
255.393
269.542
284.383
299.691
314.73
328.146
337.043
8.15427
8.49031
8.14061
8.49084
8.98697
9.36654
9.73897
10.1523
10.5859
11.0322
11.4967
11.982
12.488
13.0156
13.5657
14.1393
14.7374
15.3608
16.0106
16.6875
17.3927
18.1272
18.892
19.6882
20.5169
21.3792
22.2765
23.2098
24.1806
25.1903
26.2402
27.3319
28.4668
29.647
30.8739
32.1496
33.4759
34.8552
36.2895
37.7813
39.3332
40.9478
42.6282
44.3773
46.1985
48.0953
50.0715
52.1311
54.2784
56.518
58.8548
61.2942
63.8415
66.5031
69.2852
72.195
75.2396
78.4274
81.7669
85.2677
88.9396
92.7936
96.8418
101.097
105.574
110.287
115.254
120.493
126.025
131.873
138.061
144.616
151.571
158.958
166.815
175.185
184.113
193.65
203.85
214.77
226.467
238.991
252.369
266.605
281.565
297.038
312.183
325.803
334.508
8.00178
8.36817
8.04178
8.33328
8.79081
9.15069
9.49946
9.88758
10.2986
10.7234
11.1662
11.6297
12.1139
12.6194
13.147
13.6977
14.2723
14.8716
15.4965
16.1481
16.8271
17.5347
18.2718
19.0395
19.839
20.6712
21.5375
22.4392
23.3774
24.3537
25.3694
26.4261
27.5253
28.6688
29.8583
31.0958
32.3832
33.7227
35.1165
36.567
38.0768
39.6487
41.2854
42.9901
44.7661
46.617
48.5464
50.5583
52.6571
54.8474
57.1339
59.5219
62.017
64.6252
67.353
70.2073
73.1954
76.3253
79.606
83.0463
86.6566
90.4479
94.4318
98.6214
103.031
107.676
112.573
117.742
123.201
128.975
135.089
141.569
148.448
155.76
163.543
171.839
180.697
190.167
200.307
211.175
222.831
235.332
248.707
262.966
277.971
293.516
308.636
322.53
330.463
7.83325
8.21727
7.92079
8.161
8.57864
8.91756
9.24305
9.60568
9.9932
10.3957
10.8161
11.257
11.7187
12.2012
12.7055
13.2323
13.7824
14.3567
14.956
15.581
16.2329
16.9125
17.6208
18.3588
19.1278
19.9287
20.7628
21.6313
22.5356
23.4769
24.4568
25.4768
26.5385
27.6435
28.7936
29.9908
31.237
32.5344
33.8852
35.2918
36.7568
38.2829
39.8729
41.53
43.2574
45.0585
46.9372
48.8974
50.9434
53.0795
55.3108
57.6424
60.0798
62.6289
65.2961
68.0884
71.0129
74.0778
77.2915
80.6631
84.2029
87.9215
91.8309
95.9438
100.274
104.838
109.651
114.733
120.104
125.786
131.806
138.189
144.969
152.178
159.857
168.047
176.797
186.159
196.19
206.953
218.508
230.914
244.205
258.399
273.349
288.862
303.948
317.927
324.792
7.647
8.03658
7.77454
7.97099
8.34863
8.66573
8.96853
9.30585
9.66939
10.0491
10.4465
10.8642
11.3025
11.7614
12.2415
12.7437
13.2686
13.8169
14.3895
14.9872
15.6108
16.2614
16.9398
17.6471
18.3843
19.1527
19.9532
20.7872
21.6561
22.561
23.5035
24.4851
25.5074
26.5721
27.6809
28.8357
30.0386
31.2916
32.5969
33.9571
35.3745
36.852
38.3923
39.9985
41.6738
43.4217
45.2459
47.1504
49.1392
51.2168
53.3882
55.6582
58.0326
60.517
63.1178
65.8416
68.6959
71.6884
74.8274
78.1223
81.5829
85.2196
89.0443
93.0696
97.3096
101.779
106.495
111.476
116.742
122.315
128.22
134.486
141.142
148.223
155.767
163.818
172.422
181.633
191.507
202.106
213.492
225.725
238.838
252.852
267.599
282.956
297.774
311.73
317.015
7.44218
7.82619
7.6011
7.76103
8.09947
8.39418
8.67504
8.98753
9.32689
9.68336
10.0575
10.4516
10.866
11.3006
11.756
12.2328
12.7317
13.2533
13.7984
14.3678
14.9623
15.5829
16.2304
16.9058
17.6103
18.3448
19.1106
19.9089
20.7411
21.6081
22.5119
23.4536
24.4349
25.4576
26.5233
27.634
28.7915
29.9981
31.2559
32.5674
33.9349
35.3613
36.8493
38.4019
40.0224
41.7141
43.4807
45.3261
47.2545
49.2701
51.3776
53.5824
55.8896
58.3049
60.8347
63.4855
66.2645
69.1795
72.2385
75.4507
78.8257
82.3743
86.1077
90.0382
94.1798
98.5475
103.157
108.028
113.178
118.631
124.411
130.544
137.062
143.998
151.39
159.28
167.714
176.745
186.429
196.825
207.994
219.994
232.851
246.585
261.011
276.062
290.21
304.027
306.494
7.21822
7.58689
7.39946
7.5296
7.83029
8.10231
8.36197
8.65028
8.96551
9.29858
9.64921
10.0193
10.4093
10.8191
11.2491
11.6999
12.172
12.6662
13.183
13.7232
14.2877
14.8772
15.4927
16.1352
16.8057
17.5053
18.235
18.9962
19.7901
20.6179
21.4813
22.3814
23.32
24.2987
25.3194
26.3837
27.4938
28.6516
29.8595
31.1196
32.4346
33.807
35.2396
36.7354
38.2976
39.9295
41.6347
43.4171
45.2806
47.2297
49.2689
51.4032
53.6378
55.9786
58.4314
61.0028
63.6998
66.53
69.5014
72.623
75.9041
79.355
82.9871
86.8122
90.8439
95.0971
99.5871
104.332
109.352
114.667
120.302
126.283
132.64
139.405
146.616
154.313
162.541
171.352
180.798
190.938
201.828
213.524
226.043
239.408
253.409
267.984
281.183
294.644
294.016
6.97488
7.31995
7.16938
7.27575
7.54064
7.78986
8.02902
8.29396
8.58527
8.89489
9.22187
9.56777
9.93303
10.3176
10.7216
11.1458
11.5905
12.0564
12.544
13.0542
13.5876
14.1452
14.7278
15.3362
15.9716
16.6349
17.3274
18.0502
18.8043
19.5913
20.4125
21.2695
22.1636
23.0966
24.0702
25.0862
26.1466
27.2533
28.4087
29.615
30.8746
32.1901
33.5642
35
36.5005
38.069
39.709
41.4243
43.2188
45.0968
47.0628
49.1216
51.2785
53.5387
55.9085
58.3941
61.0023
63.7405
66.6165
69.6389
72.8168
76.1607
79.6811
83.3897
87.2995
91.4249
95.7811
100.386
105.256
110.415
115.884
121.689
127.859
134.424
141.421
148.887
156.867
165.407
174.558
184.375
194.906
206.202
218.271
231.14
244.488
258.4
270.339
283.321
278.389
6.71215
7.02696
6.91117
6.99902
7.23041
7.45696
7.67628
7.91868
8.18645
8.47269
8.77599
9.09754
9.43779
9.79668
10.1744
10.5713
10.988
11.425
11.8828
12.3621
12.8637
13.3884
13.9369
14.5104
15.1095
15.7355
16.3894
17.0723
17.7856
18.5303
19.3081
20.1201
20.9682
21.8537
22.7784
23.7441
24.7528
25.8064
26.9071
28.0571
29.2588
30.5149
31.8279
33.2008
34.6366
36.1385
37.71
39.3547
41.0765
42.8796
44.7683
46.7474
48.8219
50.9971
53.2788
55.6733
58.1871
60.8273
63.6017
66.5184
69.5862
72.8155
76.216
79.7992
83.578
87.5656
91.7771
96.2291
100.939
105.927
111.215
116.827
122.79
129.133
135.891
143.098
150.795
159.025
167.833
177.269
187.368
198.18
209.691
221.903
234.382
247.448
257.667
270.019
258.006
6.42996
6.70968
6.62557
6.69934
6.89978
7.10397
7.30404
7.52474
7.76941
8.03243
8.31204
8.60916
8.9242
9.2571
9.60801
9.9773
10.3653
10.7728
11.2
11.6477
12.1166
12.6075
13.1211
13.6585
14.2203
14.8078
15.4219
16.0638
16.7347
17.4359
18.1686
18.9342
19.7345
20.5707
21.4447
22.3582
23.3131
24.3113
25.355
26.4465
27.5879
28.7818
30.0309
31.338
32.706
34.1381
35.6376
37.2082
38.8535
40.5776
42.3848
44.2798
46.2672
48.3526
50.5412
52.8391
55.2527
57.7889
60.4552
63.2593
66.2101
69.3166
72.5891
76.0385
79.6767
83.5163
87.5723
91.8598
96.3956
101.199
106.29
111.692
117.429
123.53
130.025
136.946
144.33
152.214
160.637
169.64
179.255
189.51
200.345
211.764
223.197
235.21
243.135
254.598
234.119
6.12838
6.36995
6.31373
6.37701
6.54916
6.73146
6.91281
7.11259
7.33469
7.57465
7.83067
8.10329
8.39294
8.69958
9.0233
9.36443
9.72332
10.1005
10.4965
10.9118
11.3472
11.8034
12.2811
12.7813
13.3048
13.8526
14.4256
15.0252
15.6524
16.3083
16.9944
17.7121
18.4627
19.2478
20.0691
20.9283
21.8273
22.7678
23.7521
24.7823
25.8607
26.9896
28.1717
29.4098
30.7066
32.0653
33.4892
34.9815
36.5461
38.1869
39.9079
41.7137
43.6089
45.5985
47.688
49.883
52.1897
54.6146
57.1651
59.8484
62.673
65.6477
68.7821
72.0863
75.572
79.2512
83.1376
87.2454
91.5907
96.191
101.065
106.234
111.721
117.552
123.752
130.353
137.384
144.877
152.866
161.382
170.435
180.029
190.063
200.562
210.726
221.464
226.466
236.847
207.03
5.80755
6.00972
5.97706
6.03263
6.17922
6.3403
6.50339
6.68301
6.88307
7.10022
7.33272
7.58086
7.845
8.12511
8.42129
8.73383
9.06307
9.40945
9.77349
10.1557
10.5568
10.9774
11.4183
11.8804
12.3644
12.8714
13.4024
13.9583
14.5404
15.1498
15.7879
16.4559
17.1553
17.8876
18.6545
19.4575
20.2984
21.1792
22.1019
23.0685
24.0813
25.1427
26.2551
27.4212
28.6438
29.9259
31.2707
32.6814
34.1616
35.7151
37.3458
39.0581
40.8564
42.7456
44.7308
46.8175
49.0115
51.3193
53.7476
56.3031
58.9943
61.8294
64.8171
67.9672
71.2904
74.7982
78.5033
82.4187
86.5591
90.9408
95.5807
100.498
105.713
111.248
117.125
123.37
130.009
137.069
144.571
152.529
160.929
169.769
178.896
188.348
197.015
206.319
207.757
217.061
172.89
5.46765
5.63091
5.61728
5.66713
5.79083
5.93149
6.07675
6.23687
6.41542
6.61003
6.81911
7.04278
7.28129
7.53467
7.80302
8.08659
8.38569
8.70074
9.0322
9.38065
9.74666
10.1309
10.5341
10.9571
11.4006
11.8658
12.3534
12.8645
13.4003
13.9618
14.5504
15.1672
15.8139
16.4916
17.2021
17.9471
18.7282
19.5471
20.406
21.3068
22.2517
23.243
24.283
25.3745
26.5201
27.7226
28.985
30.3107
31.703
33.1655
34.7021
36.3169
38.0141
39.7984
41.6747
43.6482
45.7244
47.9095
50.2097
52.6317
55.1831
57.8716
60.7053
63.694
66.8469
70.1748
73.6891
77.402
81.3265
85.4777
89.8705
94.5209
99.4469
104.668
110.203
116.072
122.293
128.881
135.846
143.187
150.876
158.887
166.994
175.264
182.186
189.874
186.993
195.152
133.137
5.10904
5.23548
5.23628
5.28167
5.38503
5.5062
5.63403
5.7752
5.93273
6.10505
6.29083
6.49001
6.70277
6.92922
7.16941
7.42359
7.69207
7.97518
8.27347
8.58743
8.91757
9.26457
9.62921
10.0121
10.4142
10.8363
11.2793
11.7444
12.2324
12.7446
13.2822
13.8462
14.4384
15.0599
15.7122
16.397
17.116
17.8709
18.6636
19.4961
20.3703
21.2887
22.2535
23.2672
24.3323
25.4517
26.6282
27.865
29.1653
30.5326
31.9704
33.4828
35.0738
36.7477
38.5093
40.3635
42.3155
44.3709
46.5356
48.8161
51.2192
53.7522
56.4227
59.2393
62.2107
65.347
68.6579
72.1544
75.8481
79.7521
83.8798
88.2447
92.8617
97.7462
102.911
108.372
114.136
120.209
126.588
133.259
140.163
147.252
154.201
161.131
166.008
171.841
163.731
170.65
91.5608
4.73221
4.82533
4.83616
4.87769
4.96309
5.06578
5.17654
5.29925
5.43623
5.58653
5.74908
5.92378
6.11071
6.31
6.52177
6.74619
6.98358
7.23431
7.49879
7.7776
8.07115
8.38016
8.70532
9.04728
9.40685
9.78489
10.1823
10.6
11.0391
11.5007
11.9857
12.4956
13.0316
13.5952
14.1877
14.8106
15.4655
16.1542
16.8786
17.6404
18.4418
19.2847
20.1716
21.1047
22.0865
23.1197
24.2071
25.3516
26.5563
27.8245
29.1596
30.5655
32.0458
33.6048
35.2467
36.9763
38.7986
40.7185
42.7417
44.874
47.1217
49.4916
51.9904
54.6256
57.4055
60.3388
63.4344
66.7019
70.1514
73.7938
77.6402
81.7008
85.9872
90.5096
95.2757
100.294
105.566
111.088
116.84
122.793
128.851
134.948
140.643
146.146
148.753
152.701
138.545
144.625
40.2461
4.33796
4.40241
4.4192
4.45691
4.52643
4.61172
4.70576
4.81039
4.92721
5.05571
5.19514
5.34531
5.5063
5.67825
5.86129
6.05561
6.26148
6.47928
6.70941
6.9524
7.2087
7.47894
7.76376
8.06388
8.37999
8.71294
9.06361
9.43291
9.82177
10.2313
10.6626
11.1169
11.5953
12.0992
12.63
13.1891
13.7782
14.3988
15.0527
15.7417
16.4678
17.2329
18.0393
18.8891
19.7848
20.7289
21.724
22.773
23.8787
25.0444
26.2731
27.5686
28.9343
30.3741
31.8921
33.4925
35.1799
36.9593
38.8356
40.814
42.9005
45.1008
47.4217
49.8693
52.4511
55.1742
58.0465
61.0759
64.2707
67.6398
71.1907
74.9311
78.8692
83.0106
87.3586
91.9129
96.6669
101.604
106.688
111.869
117.015
122.043
126.37
130.338
130.412
132.382
111.278
116.67
-16.2229
3.92736
3.96861
3.98778
4.02121
4.07665
4.14561
4.22325
4.31008
4.40704
4.51395
4.63027
4.75586
4.89079
5.03518
5.18919
5.35299
5.52687
5.71123
5.90642
6.11293
6.33122
6.56189
6.80557
7.06291
7.3346
7.62141
7.92419
8.24382
8.58121
8.93738
9.3134
9.71039
10.1295
10.5721
11.0394
11.5329
12.0539
12.6042
13.1854
13.7992
14.4474
15.1319
15.855
16.6185
17.425
18.2766
19.176
20.1257
21.1285
22.1874
23.3053
24.4857
25.7317
27.047
28.4354
29.9009
31.4475
33.0798
34.802
36.6193
38.5368
40.5596
42.6932
44.9434
47.3166
49.8183
52.4553
55.2334
58.1592
61.2386
64.4774
67.88
71.4497
75.1877
79.091
83.151
87.3507
91.6606
96.0251
100.374
104.529
108.395
111.21
113.5
110.696
110.539
81.4075
86.2885
-72.2978
3.50192
3.52585
3.54441
3.57277
3.61555
3.6692
3.73077
3.79999
3.87733
3.96277
4.05602
4.15696
4.26566
4.38226
4.50694
4.63988
4.78139
4.93179
5.09149
5.26092
5.44058
5.63096
5.83265
6.04634
6.27268
6.51236
6.76622
7.03511
7.31985
7.62143
7.94084
8.27915
8.63756
9.01717
9.41939
9.84541
10.2966
10.7747
11.281
11.8173
12.3853
12.987
13.6241
14.2987
15.013
15.7693
16.5698
17.417
18.3135
19.2621
20.2656
21.3269
22.4493
23.636
24.8903
26.2161
27.6167
29.0964
30.6593
32.3094
34.0511
35.8891
37.828
39.8724
42.0277
44.2985
46.6898
49.2058
51.8513
54.6298
57.5441
60.5949
63.7819
67.1005
70.541
74.087
77.7106
81.3696
84.9881
88.4766
91.6052
94.2752
95.5119
96.1139
90.235
88.158
50.2212
55.5719
-141.666
3.06359
3.07603
3.09163
3.1139
3.14508
3.18433
3.23007
3.2818
3.33965
3.40372
3.47386
3.55004
3.63233
3.7209
3.81592
3.91764
4.02632
4.14229
4.26594
4.39767
4.53797
4.68734
4.84633
5.01553
5.19555
5.38717
5.59106
5.80801
6.03891
6.28464
6.54616
6.82445
7.12063
7.43575
7.77106
8.12786
8.5075
8.91128
9.34082
9.79761
10.2833
10.7996
11.3484
11.9315
12.551
13.209
13.9076
14.6493
15.4363
16.2711
17.1565
18.095
19.0897
20.1435
21.2594
22.4406
23.6905
25.0125
26.4102
27.8872
29.4473
31.0941
32.8315
34.6635
36.5936
38.6255
40.7625
43.0072
45.3616
47.827
50.4032
53.087
55.8736
58.7526
61.7077
64.7137
67.7309
70.703
73.5321
76.1085
78.1436
79.5431
79.0782
77.892
68.6363
64.5503
16.8969
22.5936
-207.844
2.61496
2.62108
2.63198
2.64708
2.66736
2.69294
2.72307
2.75731
2.79571
2.83839
2.88534
2.93659
2.99226
3.05252
3.11758
3.18766
3.26305
3.34409
3.43113
3.52457
3.62485
3.73244
3.84788
3.97173
4.1046
4.24712
4.39998
4.56396
4.73982
4.92838
5.13056
5.34731
5.57966
5.82874
6.0955
6.38125
6.68717
7.01473
7.36514
7.74002
8.14086
8.56926
9.02696
9.51566
10.0373
10.5938
11.1871
11.8195
12.493
13.21
13.9729
14.7842
15.6463
16.5621
17.5341
18.5651
19.6581
20.8161
22.042
23.3387
24.7095
26.1571
27.6845
29.2944
30.9893
32.7714
34.6422
36.6024
38.6521
40.7898
43.0112
45.3099
47.6762
50.0935
52.5381
54.9755
57.3533
59.6002
61.5941
63.2054
64.0771
64.1338
61.8385
58.7931
45.8281
39.8094
-18.5063
-11.8519
-273.158
2.15919
2.16289
2.16795
2.17499
2.18472
2.19711
2.21174
2.22845
2.24735
2.26858
2.29222
2.31837
2.34717
2.37883
2.41357
2.45165
2.49333
2.53896
2.58887
2.64344
2.70308
2.76825
2.83943
2.91715
3.00196
3.09449
3.19538
3.30531
3.42501
3.55529
3.69696
3.85088
4.01808
4.19943
4.39611
4.60913
4.83972
5.08912
5.35859
5.64953
5.96337
6.3016
6.66581
7.05762
7.47875
7.93101
8.41624
8.93637
9.49343
10.0895
10.7266
11.4071
12.1332
12.9072
13.7314
14.6083
15.5404
16.5299
17.5795
18.6913
19.8677
21.1108
22.4226
23.8048
25.2586
26.7846
28.3829
30.0521
31.7899
33.592
35.4515
37.3576
39.2954
41.2431
43.169
45.0294
46.7596
48.2742
49.4257
50.0686
49.7708
48.5007
44.3588
39.5606
22.7893
15.3457
-54.0071
-44.9361
-357.232
1.70004
1.70325
1.70181
1.70023
1.69953
1.6989
1.698
1.69706
1.69633
1.69595
1.69607
1.69685
1.69851
1.70125
1.70532
1.71098
1.71851
1.72822
1.74044
1.75553
1.77389
1.79594
1.82211
1.85291
1.88885
1.93047
1.97836
2.03317
2.09558
2.16635
2.24619
2.33593
2.4364
2.54865
2.67351
2.81215
2.9655
3.13483
3.32122
3.52609
3.75063
3.99627
4.26447
4.55669
4.87453
5.2196
5.59358
5.99822
6.43531
6.90667
7.41418
7.95982
8.54551
9.17317
9.84486
10.5625
11.3281
12.1435
13.0105
13.9309
14.906
15.9373
17.0256
18.1715
19.3748
20.6349
21.9496
23.3159
24.729
26.1812
27.6624
29.1578
30.6467
32.101
33.4815
34.7343
35.7807
36.5202
36.7771
36.3902
34.8401
32.1526
26.008
19.3283
-1.60214
-10.7291
-91.8408
-81.5411
-419.384
1.24149
1.24402
1.23584
1.22554
1.21429
1.20049
1.1839
1.16512
1.14454
1.12233
1.09867
1.07381
1.04799
1.02146
0.99448
0.967306
0.940223
0.913533
0.887551
0.862618
0.839093
0.817333
0.797794
0.780864
0.767063
0.756879
0.750846
0.749547
0.753604
0.763619
0.780382
0.804608
0.837091
0.878592
0.930145
0.992551
1.06695
1.15421
1.25564
1.37219
1.50516
1.65581
1.82544
2.0154
2.2271
2.46201
2.72162
3.00744
3.32106
3.66412
4.03817
4.44489
4.88589
5.36278
5.87719
6.43062
7.02454
7.66022
8.33898
9.06169
9.82919
10.6417
11.4992
12.4011
13.3458
14.331
15.3529
16.4063
17.4836
18.5744
19.6647
20.7355
21.761
22.7063
23.5237
24.1495
24.4908
24.4323
23.7679
22.3253
19.4851
15.3633
7.14186
-1.36255
-26.654
-37.1036
-130.149
-117.816
-484.525
0.787271
0.78712
0.772475
0.753658
0.731501
0.704084
0.671495
0.634624
0.593911
0.549548
0.501796
0.450965
0.397343
0.341183
0.282763
0.222348
0.160219
0.0966693
0.0319906
-0.0335279
-0.0995443
-0.165684
-0.231619
-0.296925
-0.361215
-0.424027
-0.48485
-0.543204
-0.598552
-0.650246
-0.697695
-0.740252
-0.77717
-0.807614
-0.830932
-0.846186
-0.852509
-0.848887
-0.834443
-0.80805
-0.768633
-0.715087
-0.646236
-0.560854
-0.457711
-0.335513
-0.192963
-0.0287025
0.158598
0.370304
0.607778
0.872316
1.16528
1.48794
1.84142
2.22684
2.64513
3.09713
3.58339
4.10423
4.65942
5.24854
5.87046
6.52333
7.20439
7.90947
8.6332
9.36799
10.1039
10.8277
11.5217
12.162
12.7183
13.1494
13.399
13.3937
13.0268
12.1695
10.5845
8.09529
3.97194
-1.54105
-11.8305
-21.9911
-51.6377
-62.8645
-167.52
-152.249
-564.855
0.340596
0.334541
0.314229
0.287244
0.253488
0.211775
0.162795
0.107485
0.0462469
-0.0206579
-0.0928792
-0.170062
-0.251893
-0.338085
-0.428358
-0.522439
-0.620071
-0.720985
-0.824908
-0.931536
-1.0406
-1.15182
-1.26483
-1.37931
-1.49487
-1.61115
-1.72773
-1.8442
-1.95996
-2.07456
-2.18748
-2.29807
-2.40571
-2.50982
-2.60957
-2.7042
-2.79298
-2.87506
-2.94951
-3.01547
-3.07197
-3.11798
-3.1525
-3.17448
-3.18282
-3.17642
-3.15415
-3.1149
-3.05754
-2.981
-2.88417
-2.76601
-2.6256
-2.46202
-2.27451
-2.06242
-1.82533
-1.56305
-1.27565
-0.963638
-0.627853
-0.269813
0.108263
0.503231
0.910828
1.32546
1.73977
2.14383
2.525
2.86673
3.14767
3.34008
3.40686
3.30046
2.95588
2.28981
1.18036
-0.515225
-3.0692
-6.65877
-12.141
-19.1156
-31.6131
-43.5163
-77.7805
-90.0541
-206.456
-189.827
-615.037
-0.0957396
-0.11166
-0.136272
-0.171066
-0.217399
-0.274271
-0.340129
-0.414285
-0.496495
-0.586406
-0.683526
-0.787457
-0.897885
-1.01451
-1.13704
-1.26523
-1.3988
-1.53752
-1.68112
-1.8294
-1.98208
-2.13888
-2.29956
-2.46385
-2.63144
-2.80197
-2.97509
-3.15042
-3.3276
-3.50618
-3.68558
-3.86542
-4.04512
-4.22405
-4.40165
-4.5772
-4.75003
-4.91951
-5.08481
-5.24503
-5.39945
-5.5472
-5.68737
-5.81908
-5.94138
-6.05339
-6.1542
-6.24286
-6.31855
-6.38032
-6.42751
-6.45928
-6.47504
-6.47434
-6.45674
-6.42217
-6.37068
-6.30273
-6.21898
-6.12061
-6.00952
-5.88811
-5.75962
-5.62862
-5.50048
-5.38279
-5.28482
-5.21878
-5.19993
-5.24783
-5.38782
-5.65247
-6.08349
-6.73611
-7.68324
-9.01845
-10.879
-13.4192
-16.9485
-21.6354
-28.4809
-36.8777
-51.5929
-65.0729
-103.953
-116.808
-244.131
-225.801
-671.238
-0.519399
-0.549358
-0.576356
-0.618757
-0.678981
-0.752002
-0.835262
-0.928754
-1.0325
-1.14592
-1.2684
-1.39952
-1.53898
-1.68646
-1.84167
-2.00437
-2.1743
-2.35125
-2.53502
-2.72539
-2.92215
-3.12515
-3.33414
-3.54885
-3.76907
-3.99456
-4.225
-4.46014
-4.69962
-4.94303
-5.19007
-5.44029
-5.69321
-5.94828
-6.20515
-6.46318
-6.72163
-6.98016
-7.23793
-7.49431
-7.74864
-8.00019
-8.24818
-8.49195
-8.73069
-8.96363
-9.19016
-9.40947
-9.62106
-9.82422
-10.0185
-10.2035
-10.379
-10.5446
-10.7007
-10.8474
-10.9855
-11.1159
-11.24
-11.3598
-11.4781
-11.5979
-11.7239
-11.8617
-12.0185
-12.2031
-12.427
-12.7047
-13.0538
-13.4972
-14.064
-14.7912
-15.7266
-16.931
-18.4859
-20.4945
-23.1093
-26.4944
-30.9985
-36.7707
-44.9727
-54.7412
-71.6576
-86.5553
-129.934
-143.083
-280.253
-260.641
-729.907
-0.928418
-0.976385
-1.0034
-1.05348
-1.12919
-1.21941
-1.32065
-1.43408
-1.55999
-1.6975
-1.84585
-2.00464
-2.17358
-2.35235
-2.54066
-2.7383
-2.94501
-3.16065
-3.38505
-3.61801
-3.8594
-4.1091
-4.3669
-4.63268
-4.90625
-5.18745
-5.47605
-5.77183
-6.07458
-6.38394
-6.69958
-7.02132
-7.34876
-7.68148
-8.01902
-8.36095
-8.70687
-9.05626
-9.40858
-9.76321
-10.1197
-10.4773
-10.8357
-11.1941
-11.5521
-11.9089
-12.2643
-12.6176
-12.9686
-13.3169
-13.6622
-14.0044
-14.3437
-14.6803
-15.0148
-15.348
-15.6811
-16.0155
-16.3535
-16.6978
-17.0519
-17.4202
-17.8083
-18.2231
-18.6732
-19.1696
-19.7253
-20.3571
-21.0858
-21.9374
-22.9451
-24.1499
-25.605
-27.3787
-29.5613
-32.265
-35.6583
-39.9144
-45.425
-52.3116
-61.9163
-73.0779
-92.2721
-108.588
-156.51
-170.155
-316.407
-297.135
-761.324
-1.32114
-1.3905
-1.41479
-1.47298
-1.566
-1.67449
-1.79435
-1.9284
-2.07716
-2.23936
-2.41409
-2.60104
-2.79992
-3.0104
-3.23223
-3.46515
-3.70906
-3.96377
-4.22914
-4.50508
-4.79153
-5.08838
-5.39553
-5.7129
-6.04041
-6.37795
-6.72536
-7.08252
-7.44926
-7.82535
-8.21073
-8.60509
-9.0081
-9.41946
-9.83905
-10.2665
-10.7011
-11.1429
-11.5913
-12.0459
-12.5063
-12.9721
-13.4428
-13.9182
-14.3976
-14.8809
-15.3676
-15.8576
-16.3508
-16.8469
-17.3462
-17.8489
-18.3554
-18.8665
-19.3829
-19.9061
-20.4378
-20.9801
-21.5361
-22.1091
-22.7034
-23.3245
-23.9792
-24.6757
-25.4242
-26.2369
-27.1292
-28.1206
-29.2337
-30.4983
-31.9507
-33.6369
-35.6162
-37.9623
-40.7742
-44.1724
-48.3417
-53.4604
-59.9667
-67.9391
-78.922
-91.3895
-112.809
-130.311
-182.545
-196.285
-349.939
-331.557
-801.243
-1.69612
-1.7894
-1.808
-1.87521
-1.98758
-2.11539
-2.25453
-2.40997
-2.58235
-2.76986
-2.97153
-3.18712
-3.41639
-3.65902
-3.91475
-4.18336
-4.46479
-4.75894
-5.06566
-5.385
-5.71691
-6.06131
-6.41826
-6.7877
-7.16967
-7.56412
-7.97094
-8.39019
-8.82173
-9.26552
-9.72137
-10.1893
-10.669
-11.1604
-11.6632
-12.1771
-12.7022
-13.2379
-13.7841
-14.3405
-14.9068
-15.4827
-16.068
-16.6624
-17.2657
-17.8777
-18.4984
-19.1278
-19.7659
-20.413
-21.0694
-21.7357
-22.4128
-23.1016
-23.8036
-24.5205
-25.2547
-26.009
-26.787
-27.5927
-28.4316
-29.3101
-30.2361
-31.2189
-32.2702
-33.4042
-34.6383
-35.9935
-37.4962
-39.1789
-41.0811
-43.2539
-45.7613
-48.6829
-52.1265
-56.2202
-61.1647
-67.1406
-74.6356
-83.671
-96.0149
-109.72
-133.316
-151.852
-208.122
-221.91
-381.354
-365.144
-836.791
-2.05213
-2.17073
-2.18063
-2.2583
-2.39221
-2.54035
-2.69948
-2.87717
-3.07395
-3.28742
-3.51659
-3.76137
-4.0215
-4.29668
-4.58667
-4.89135
-5.21066
-5.54456
-5.89303
-6.25608
-6.6338
-7.02619
-7.43334
-7.85537
-8.2923
-8.74419
-9.21115
-9.69317
-10.1903
-10.7026
-11.23
-11.7724
-12.3299
-12.9023
-13.4897
-14.0919
-14.7088
-15.3402
-15.986
-16.6461
-17.3203
-18.0085
-18.7106
-19.4266
-20.1564
-20.9
-21.6576
-22.4294
-23.2158
-24.0172
-24.8343
-25.6681
-26.5197
-27.3905
-28.2824
-29.1976
-30.1392
-31.1105
-32.1157
-33.1598
-34.2492
-35.3912
-36.5947
-37.8708
-39.2324
-40.6955
-42.2792
-44.0072
-45.9083
-48.0185
-50.3806
-53.0506
-56.0973
-59.607
-63.6951
-68.4973
-74.2312
-81.0765
-89.5762
-99.6804
-113.405
-128.332
-154.119
-173.659
-233.791
-247.922
-411.732
-399.58
-846.48
-2.38804
-2.53204
-2.53037
-2.62053
-2.77821
-2.94761
-3.12751
-3.32839
-3.5504
-3.79049
-4.04772
-4.32215
-4.61357
-4.9217
-5.24629
-5.58735
-5.9448
-6.31868
-6.70912
-7.11616
-7.53995
-7.9806
-8.43835
-8.91328
-9.40556
-9.91538
-10.4429
-10.9883
-11.5516
-12.1331
-12.7327
-13.3505
-13.9868
-14.6414
-15.3145
-16.0061
-16.7161
-17.4445
-18.1914
-18.9568
-19.7406
-20.5429
-21.3639
-22.2034
-23.0619
-23.9394
-24.8363
-25.7531
-26.6904
-27.6489
-28.6296
-29.6337
-30.6628
-31.7187
-32.8038
-33.9208
-35.0731
-36.2649
-37.5009
-38.7873
-40.1309
-41.5403
-43.0251
-44.5981
-46.2735
-48.0692
-50.0065
-52.1105
-54.4135
-56.9538
-59.7783
-62.9466
-66.5326
-70.6285
-75.3576
-80.8609
-87.3736
-95.0695
-104.551
-115.676
-130.738
-146.769
-174.647
-194.954
-258.533
-272.814
-438.714
-433.612
-863.093
-2.70274
-2.87086
-2.85511
-2.96042
-3.14411
-3.33559
-3.53711
-3.76219
-4.01025
-4.27759
-4.56344
-4.86802
-5.19113
-5.53251
-5.89199
-6.26964
-6.66548
-7.07962
-7.51219
-7.9634
-8.43349
-8.92265
-9.4312
-9.95937
-10.5074
-11.0755
-11.6641
-12.2733
-12.9033
-13.5546
-14.2271
-14.9212
-15.6371
-16.3749
-17.1348
-17.9167
-18.7211
-19.5479
-20.3974
-21.2697
-22.1648
-23.0831
-24.0247
-24.9899
-25.9791
-26.9927
-28.0312
-29.0953
-30.186
-31.3041
-32.451
-33.6282
-34.8377
-36.0817
-37.3629
-38.6847
-40.0509
-41.4663
-42.9364
-44.468
-46.0689
-47.7486
-49.5182
-51.3911
-53.3835
-55.5143
-57.8074
-60.2896
-62.9954
-65.9666
-69.2537
-72.9195
-77.0432
-81.7211
-87.0847
-93.2789
-100.557
-109.08
-119.517
-131.612
-147.963
-164.986
-194.84
-215.723
-282.288
-296.693
-462.502
-463.325
-887.18
-2.9952
-3.18468
-3.15292
-3.27668
-3.48854
-3.70286
-3.92693
-4.1773
-4.45226
-4.7475
-5.06251
-5.3977
-5.75288
-6.12783
-6.52248
-6.93693
-7.37131
-7.82588
-8.30078
-8.79637
-9.31295
-9.85083
-10.4104
-10.992
-11.5961
-12.2229
-12.8729
-13.5464
-14.2439
-14.9655