/*--------------------------------*- C++ -*----------------------------------*\
  =========                 |
  \\      /  F ield         | OpenFOAM: The Open Source CFD Toolbox
   \\    /   O peration     | Website:  https://openfoam.org
    \\  /    A nd           | Version:  11
     \\/     M anipulation  |
\*---------------------------------------------------------------------------*/
FoamFile
{
    format      ascii;
    class       volScalarField;
    location    "400";
    object      p;
}
// * * * * * * * * * * * * * * * * * * * * * * * * * * * * * * * * * * * * * //

dimensions      [0 2 -2 0 0 0 0];

internalField   nonuniform List<scalar> 
31595
(
0.196888
0.105607
0.157998
0.150672
0.175236
0.178529
0.197682
0.206506
0.222413
0.234083
0.248885
0.261999
0.276569
0.290569
0.305292
0.319911
0.334935
0.350029
0.365376
0.380834
0.396451
0.412157
0.427945
0.443763
0.459581
0.475352
0.491034
0.50658
0.521943
0.537075
0.55193
0.566465
0.58064
0.594421
0.60778
0.620696
0.633163
0.645181
0.656764
0.667942
0.678758
0.689272
0.69956
0.709715
0.719846
0.730079
0.740556
0.751435
0.762887
0.775098
0.788267
0.802604
0.818327
0.835668
0.854864
0.876157
0.899799
0.926045
0.955152
0.987378
1.02299
1.06223
1.10537
1.15264
1.20427
1.2605
1.32149
1.3874
1.45836
1.53439
1.61542
1.70133
1.79173
1.88617
1.98352
2.08319
2.18172
2.28022
2.36646
2.45382
2.4945
2.56105
2.4698
2.52064
2.0831
2.14238
0.914201
0.918789
-2.14161
0.158017
0.126595
0.14191
0.156723
0.170324
0.180915
0.194932
0.207073
0.220498
0.23342
0.247031
0.260536
0.274471
0.288505
0.302849
0.317368
0.332139
0.347101
0.362274
0.377622
0.393138
0.408792
0.424561
0.440415
0.456323
0.472254
0.488171
0.504038
0.519819
0.53548
0.550988
0.566312
0.581424
0.596305
0.61094
0.625325
0.639462
0.653367
0.667064
0.680594
0.694011
0.707384
0.720797
0.73435
0.748158
0.762352
0.77708
0.792502
0.808797
0.826154
0.844776
0.864878
0.886687
0.910439
0.936381
0.964769
0.995863
1.02993
1.06726
1.10811
1.15277
1.20154
1.25468
1.31248
1.3752
1.44312
1.51645
1.59541
1.68018
1.77084
1.86742
1.96987
2.07788
2.1911
2.30856
2.42962
2.55127
2.67405
2.78703
2.90145
2.97287
3.0689
3.00979
3.09523
2.67412
2.79022
1.51953
1.61011
-1.4818
0.143804
0.132451
0.137803
0.156831
0.169171
0.180911
0.193705
0.206413
0.219153
0.232121
0.245301
0.258689
0.272309
0.286168
0.300266
0.314606
0.329183
0.343992
0.359024
0.374267
0.389706
0.405324
0.421101
0.437015
0.453043
0.46916
0.48534
0.501558
0.517787
0.534004
0.550187
0.566319
0.582385
0.598376
0.614293
0.630141
0.645936
0.661704
0.677483
0.693323
0.709288
0.725456
0.741919
0.758783
0.776171
0.79422
0.813082
0.832926
0.853932
0.876295
0.900226
0.925946
0.953688
0.983699
1.01623
1.05156
1.08995
1.1317
1.17709
1.22643
1.28001
1.33817
1.40119
1.46942
1.54315
1.62268
1.70831
1.80029
1.89888
2.00424
2.11649
2.23564
2.36153
2.49388
2.63192
2.77503
2.9206
3.06874
3.20991
3.35297
3.45806
3.58501
3.56508
3.68381
3.29519
3.46022
2.16169
2.28932
-1.00791
0.14182
0.135048
0.1376
0.156018
0.168955
0.180367
0.192801
0.205329
0.217809
0.230506
0.243424
0.256565
0.269941
0.283571
0.297456
0.311601
0.326004
0.340663
0.355571
0.370722
0.386104
0.401706
0.417514
0.433513
0.449685
0.466015
0.482485
0.499079
0.515781
0.532576
0.549455
0.56641
0.583439
0.600545
0.617739
0.635039
0.652472
0.670073
0.687893
0.705992
0.724441
0.743328
0.762753
0.782829
0.803687
0.82547
0.848337
0.872462
0.898031
0.925247
0.954326
0.985498
1.019
1.0551
1.09405
1.13614
1.18166
1.23091
1.2842
1.34186
1.40422
1.47161
1.5444
1.62292
1.70754
1.79861
1.89647
2.00144
2.11385
2.23395
2.36196
2.49799
2.64198
2.79381
2.95288
3.11866
3.28894
3.46353
3.63418
3.80764
3.94879
4.10891
4.13357
4.28615
3.9435
4.15313
2.83852
2.98472
-0.618901
0.142417
0.13825
0.138443
0.155693
0.168867
0.179891
0.191869
0.204114
0.216311
0.228704
0.241342
0.254217
0.267343
0.280738
0.294408
0.308359
0.322591
0.337104
0.351897
0.366965
0.382302
0.397902
0.413756
0.429856
0.446191
0.462751
0.479528
0.496514
0.513701
0.531085
0.548668
0.56645
0.584441
0.602656
0.621113
0.639843
0.658883
0.678281
0.698095
0.718393
0.739259
0.760787
0.783085
0.806275
0.830494
0.855893
0.882637
0.910906
0.940895
0.972814
1.00689
1.04335
1.08245
1.12447
1.16967
1.21835
1.27083
1.32741
1.38844
1.45426
1.52523
1.60172
1.68412
1.77281
1.86821
1.97071
2.08073
2.19866
2.32488
2.45974
2.60358
2.7566
2.91891
3.09051
3.27101
3.46
3.65568
3.85766
4.05889
4.26434
4.44335
4.63893
4.71185
4.89976
4.61251
4.86286
3.54593
3.81397
0.181153
0.144123
0.141827
0.139945
0.15572
0.168841
0.179433
0.190881
0.20276
0.214636
0.226698
0.239032
0.251627
0.264491
0.277645
0.291097
0.304851
0.318912
0.333284
0.347966
0.362959
0.378259
0.393866
0.409777
0.425987
0.442493
0.459293
0.476386
0.49377
0.511449
0.529427
0.547712
0.566318
0.585262
0.604568
0.624267
0.644399
0.665009
0.686157
0.707909
0.730343
0.75355
0.777634
0.802711
0.82891
0.856376
0.885266
0.915755
0.948028
0.982287
1.01875
1.05765
1.09924
1.14377
1.19152
1.24279
1.29789
1.35713
1.42087
1.48945
1.56324
1.64265
1.72806
1.8199
1.91862
2.02464
2.13845
2.2605
2.39128
2.53124
2.68084
2.84049
3.01057
3.19132
3.38291
3.58513
3.79775
4.01938
4.24959
4.48241
4.72137
4.93994
5.17356
5.29804
5.52425
5.30118
5.5899
4.2971
4.72499
1.02547
0.145833
0.145337
0.141762
0.155934
0.168778
0.178926
0.189789
0.201241
0.21276
0.224469
0.236476
0.248775
0.261367
0.274271
0.287497
0.301052
0.314942
0.329171
0.343743
0.358662
0.373929
0.389547
0.405517
0.421842
0.438523
0.455567
0.472975
0.490759
0.508926
0.52749
0.546469
0.565884
0.585761
0.606134
0.627044
0.648538
0.670673
0.693516
0.717142
0.741639
0.767106
0.793654
0.821408
0.850505
0.881097
0.913348
0.94744
0.983568
1.02194
1.06279
1.10634
1.15287
1.20264
1.25594
1.31309
1.37439
1.4402
1.51088
1.5868
1.66836
1.75598
1.8501
1.95118
2.05969
2.17615
2.30105
2.43496
2.5784
2.73195
2.89614
3.07152
3.25858
3.45775
3.66936
3.89345
4.13
4.37801
4.63713
4.90241
5.17635
5.43616
5.71071
5.89017
6.1594
6.00959
6.33933
5.10008
5.6318
1.59386
0.147273
0.148467
0.143644
0.156172
0.168582
0.178281
0.188541
0.199518
0.21065
0.221988
0.233651
0.245638
0.257947
0.270593
0.283587
0.296937
0.310651
0.324735
0.339196
0.354039
0.369271
0.384898
0.400927
0.417364
0.434219
0.451501
0.469222
0.487397
0.506043
0.525181
0.544835
0.565036
0.58582
0.607228
0.629309
0.652119
0.675724
0.7002
0.72563
0.752111
0.779749
0.808664
0.838988
0.870865
0.904456
0.939933
0.977483
1.01731
1.05964
1.10469
1.15272
1.20401
1.25882
1.31747
1.38028
1.44759
1.51974
1.59714
1.68017
1.76927
1.86488
1.96747
2.07754
2.19562
2.32227
2.45804
2.60356
2.75947
2.92638
3.10497
3.29591
3.49983
3.71732
3.94893
4.19494
4.45559
4.73027
5.01883
5.31731
5.62746
5.92998
6.24811
6.4856
6.80243
6.73403
7.10886
5.95448
6.54952
2.09284
0.148261
0.151003
0.145371
0.156298
0.168158
0.177414
0.187075
0.197547
0.208269
0.219224
0.230529
0.242193
0.254209
0.266588
0.279342
0.292482
0.306014
0.319948
0.334293
0.349057
0.36425
0.379882
0.395965
0.412509
0.42953
0.447042
0.465064
0.483618
0.502726
0.522417
0.542725
0.563685
0.58534
0.607744
0.630951
0.655027
0.680044
0.706086
0.733246
0.761627
0.791345
0.822526
0.855311
0.889851
0.926313
0.964879
1.00574
1.04912
1.09523
1.14433
1.19666
1.25252
1.31219
1.376
1.44427
1.51736
1.59566
1.67956
1.76949
1.8659
1.96927
2.08011
2.19895
2.32638
2.46299
2.60943
2.76636
2.93451
3.11461
3.30744
3.51379
3.73445
3.9702
4.22178
4.48976
4.77464
5.07625
5.39469
5.72695
6.07435
6.42072
6.78452
7.08224
7.45014
7.46888
7.89016
6.84024
7.49012
3.14202
0.148735
0.152833
0.146777
0.156199
0.167428
0.176248
0.18533
0.195282
0.20558
0.216143
0.227081
0.238411
0.250125
0.262229
0.274736
0.287657
0.301
0.314777
0.328998
0.343675
0.358821
0.37445
0.390576
0.407216
0.424391
0.442119
0.460426
0.479337
0.498885
0.519104
0.540033
0.561717
0.584206
0.607559
0.631839
0.657121
0.683485
0.711021
0.73983
0.770023
0.801723
0.835064
0.870194
0.907273
0.946474
0.987988
1.03202
1.07878
1.12852
1.18148
1.23793
1.29817
1.3625
1.43126
1.50478
1.58345
1.66766
1.75783
1.85442
1.95791
2.0688
2.18764
2.315
2.45151
2.59784
2.75467
2.92277
3.10291
3.29596
3.50278
3.72431
3.9615
4.21534
4.48675
4.77662
5.08573
5.41437
5.76298
6.12945
6.51494
6.90619
7.31773
7.6779
8.10112
8.21297
8.68522
7.75522
8.46537
4.29449
0.148659
0.15389
0.147735
0.155782
0.166324
0.174717
0.183249
0.192679
0.202543
0.212709
0.223273
0.234262
0.245665
0.257486
0.269737
0.282431
0.295576
0.309186
0.323273
0.337852
0.352939
0.368551
0.384706
0.401427
0.418736
0.43666
0.455227
0.474472
0.49443
0.515142
0.536654
0.559018
0.582294
0.606543
0.631838
0.658259
0.685894
0.714842
0.74521
0.777117
0.810692
0.846078
0.883428
0.922911
0.964709
1.00902
1.05605
1.10603
1.15921
1.21584
1.27622
1.34063
1.4094
1.48287
1.5614
1.64539
1.73526
1.83144
1.93441
2.04468
2.16278
2.28931
2.42487
2.57015
2.72583
2.8927
3.07158
3.26334
3.46892
3.68933
3.92564
4.17898
4.45048
4.74134
5.05273
5.38576
5.74119
6.11985
6.52058
6.9446
7.38138
7.84247
8.2671
8.75062
8.96177
9.49484
8.70743
9.47142
5.11751
0.148024
0.154146
0.148156
0.154972
0.164794
0.172768
0.180782
0.189698
0.199123
0.208891
0.219079
0.22972
0.240805
0.252334
0.264321
0.276778
0.289714
0.303145
0.317086
0.331553
0.346565
0.362144
0.378311
0.395092
0.412513
0.430607
0.449408
0.468953
0.489287
0.510453
0.532506
0.555503
0.579509
0.604595
0.630838
0.658326
0.687154
0.717427
0.749258
0.782776
0.818115
0.855425
0.894867
0.936617
0.980863
1.02781
1.07768
1.1307
1.18713
1.24725
1.31133
1.3797
1.45268
1.53063
1.61394
1.703
1.79825
1.90016
2.00922
2.12597
2.25099
2.38487
2.52829
2.68197
2.84665
3.02318
3.21245
3.41542
3.63312
3.86668
4.11732
4.38633
4.67504
4.98489
5.31735
5.67388
6.0557
6.46414
6.89894
7.36163
7.84421
8.35607
8.84653
9.39406
9.7094
10.3107
9.69234
10.502
5.98179
0.146834
0.153595
0.147972
0.15371
0.162796
0.170356
0.177886
0.186301
0.195289
0.20466
0.214472
0.224761
0.235521
0.246752
0.258465
0.270674
0.283392
0.296631
0.310411
0.324752
0.339672
0.355199
0.371356
0.388173
0.405682
0.423918
0.442922
0.462734
0.483406
0.504984
0.527533
0.551112
0.575792
0.601651
0.628775
0.657256
0.687196
0.718705
0.751907
0.786933
0.823926
0.863042
0.90445
0.948333
0.994885
1.04432
1.09686
1.15276
1.21227
1.27568
1.34329
1.41541
1.4924
1.57462
1.66247
1.75637
1.85677
1.96417
2.07907
2.20204
2.33369
2.47467
2.62567
2.78745
2.96084
3.14673
3.34608
3.55994
3.78945
4.03585
4.30048
4.58482
4.89042
5.21894
5.57216
5.9519
6.35987
6.79791
7.26666
7.76808
8.29658
8.85991
9.4168
10.0304
10.4526
11.1235
10.6878
11.542
7.56719
0.145091
0.152243
0.147137
0.151948
0.160296
0.167447
0.174526
0.182458
0.191011
0.199987
0.209422
0.219357
0.229786
0.240711
0.252141
0.26409
0.276574
0.289608
0.30321
0.317405
0.332214
0.347664
0.363786
0.380612
0.398177
0.416523
0.435691
0.45573
0.476693
0.498635
0.521625
0.545726
0.571017
0.597581
0.625509
0.6549
0.685862
0.718513
0.75298
0.789402
0.827928
0.868723
0.91196
0.957829
1.00653
1.05829
1.11334
1.17193
1.23433
1.30083
1.37174
1.4474
1.52817
1.61442
1.70656
1.80503
1.91031
2.02289
2.14334
2.27222
2.41018
2.5579
2.71612
2.88564
3.06734
3.26218
3.47118
3.69549
3.93634
4.19508
4.4732
4.77234
5.09426
5.44088
5.81426
6.21662
6.65016
7.11727
7.61949
8.15939
8.7337
9.34923
9.97334
10.6565
11.1894
11.9401
11.7023
12.6171
8.87874
0.1428
0.150107
0.14562
0.14965
0.157271
0.164013
0.170672
0.17814
0.186265
0.194848
0.203908
0.213485
0.223578
0.234188
0.245324
0.257001
0.269237
0.282046
0.295452
0.309479
0.324151
0.339501
0.355559
0.372362
0.389949
0.408365
0.427658
0.447878
0.469083
0.491334
0.514704
0.539264
0.565096
0.592289
0.620939
0.651152
0.68304
0.716727
0.752348
0.790047
0.82998
0.872315
0.917235
0.964935
1.01563
1.06953
1.1269
1.18798
1.25306
1.32244
1.39644
1.4754
1.55968
1.64968
1.74584
1.84859
1.95843
2.07589
2.20152
2.33596
2.47985
2.6339
2.79892
2.97574
3.16528
3.36855
3.58666
3.82084
4.0724
4.34283
4.63373
4.94691
5.28433
5.64817
6.04079
6.46478
6.92284
7.41792
7.95248
8.52984
9.14887
9.81614
10.5068
11.2615
11.9065
12.746
12.722
13.7103
10.078
0.139969
0.147212
0.143403
0.146787
0.153702
0.160038
0.166301
0.173328
0.181032
0.189226
0.197912
0.207129
0.21688
0.227167
0.237997
0.249389
0.261359
0.273928
0.287116
0.300952
0.315463
0.330683
0.346646
0.363393
0.380966
0.399411
0.418782
0.439134
0.460531
0.483037
0.506726
0.531677
0.55798
0.585723
0.615012
0.645956
0.678673
0.713294
0.749959
0.788816
0.830029
0.873772
0.920233
0.969615
1.02213
1.07802
1.13753
1.20092
1.26849
1.34054
1.4174
1.49943
1.587
1.68052
1.78043
1.88719
2.00132
2.12335
2.25389
2.39355
2.54303
2.70309
2.87454
3.05827
3.25524
3.46654
3.69331
3.93688
4.19867
4.48025
4.78337
5.11
5.4623
5.84268
6.25381
6.69865
7.1804
7.70258
8.26855
8.88243
9.54517
10.2635
11.0197
11.8463
12.6032
13.534
13.7343
14.7969
11.6563
0.1366
0.143586
0.140477
0.143339
0.149577
0.155509
0.161399
0.168003
0.175295
0.183103
0.191417
0.200271
0.209674
0.219627
0.230141
0.241233
0.25292
0.265227
0.278176
0.291795
0.306117
0.321176
0.33701
0.353664
0.37118
0.389612
0.409014
0.429447
0.450978
0.473676
0.49762
0.522892
0.549587
0.577799
0.607639
0.639219
0.672665
0.708112
0.745704
0.785598
0.82796
0.872973
0.920829
0.971736
1.02592
1.08362
1.14508
1.2106
1.28045
1.35497
1.43447
1.51934
1.60996
1.70674
1.81014
1.92065
2.03878
2.16509
2.3002
2.44477
2.59952
2.76521
2.94272
3.13295
3.33694
3.55582
3.79081
4.04327
4.31475
4.60693
4.92168
5.26112
5.6276
6.02378
6.45263
6.91746
7.42195
7.97023
8.56653
9.21583
9.92108
10.6895
11.51
12.409
13.2771
14.3039
14.7346
15.88
13.3149
0.132697
0.139258
0.13684
0.139291
0.144889
0.150418
0.155952
0.162154
0.169042
0.176467
0.184408
0.192896
0.201943
0.211552
0.221736
0.232511
0.243897
0.255919
0.268602
0.281977
0.296078
0.310942
0.326609
0.343128
0.360544
0.378914
0.398294
0.418752
0.440355
0.463178
0.487304
0.512821
0.539825
0.568417
0.59871
0.630826
0.664891
0.701047
0.739443
0.78024
0.823612
0.869744
0.918836
0.971102
1.02677
1.08609
1.14932
1.21675
1.28867
1.36541
1.44732
1.53478
1.62817
1.72793
1.83453
1.94845
2.07025
2.20049
2.33982
2.4889
2.64848
2.81938
3.00247
3.19872
3.4092
3.63508
3.87765
4.13837
4.41884
4.72083
5.04637
5.39769
5.77736
6.18824
6.63358
7.11707
7.64284
8.21561
8.84043
9.52324
10.2688
11.0853
11.9676
12.9381
13.9151
15.0437
15.7093
16.9573
14.7761
0.12826
0.134263
0.1325
0.134636
0.139635
0.144763
0.149956
0.155774
0.162267
0.16931
0.176877
0.184996
0.193679
0.202934
0.212772
0.223212
0.234277
0.24599
0.258382
0.271483
0.28533
0.299962
0.315424
0.331763
0.349033
0.36729
0.386595
0.407017
0.42863
0.45151
0.475745
0.501427
0.528655
0.557537
0.58819
0.620737
0.655312
0.69206
0.731135
0.772704
0.816945
0.864049
0.914221
0.967681
1.02466
1.08542
1.15022
1.21936
1.29313
1.37189
1.45597
1.54576
1.64167
1.74414
1.85365
1.9707
2.09585
2.2297
2.37289
2.52612
2.69016
2.86585
3.05409
3.2559
3.47238
3.70475
3.95436
4.22273
4.51153
4.82266
5.15822
5.52062
5.91257
6.33716
6.79791
7.29882
7.84451
8.44022
9.09181
9.80614
10.5897
11.4518
12.3928
13.4323
14.5134
15.7437
16.6419
17.9985
16.418
0.123288
0.128633
0.12747
0.12937
0.133815
0.138549
0.143411
0.14886
0.154965
0.161628
0.16882
0.176564
0.184875
0.193762
0.203239
0.213327
0.224047
0.235428
0.247499
0.260295
0.273853
0.288216
0.30343
0.319546
0.336619
0.354709
0.373882
0.394207
0.415763
0.43863
0.462898
0.488663
0.51603
0.545108
0.57602
0.608895
0.643868
0.68109
0.72072
0.762929
0.8079
0.855829
0.906926
0.961417
1.01954
1.08156
1.14774
1.21839
1.29381
1.37435
1.46038
1.55227
1.65045
1.75538
1.86753
1.98743
2.11564
2.25278
2.39951
2.55656
2.7247
2.90481
3.09782
3.30478
3.52682
3.76522
4.02138
4.29687
4.59344
4.91309
5.25803
5.63079
6.03424
6.47168
6.94687
7.46416
8.02855
8.64584
9.32265
10.0667
10.8862
11.7917
12.7882
13.8943
15.0746
16.4059
17.5294
18.9978
18.1439
0.11778
0.122403
0.121768
0.123497
0.127435
0.13178
0.136319
0.141411
0.147136
0.153419
0.160232
0.167594
0.175522
0.184028
0.193127
0.20284
0.213193
0.224212
0.235932
0.248388
0.261619
0.275671
0.290593
0.306436
0.323259
0.341126
0.360103
0.380264
0.401691
0.424467
0.448687
0.474447
0.501859
0.531036
0.562099
0.595185
0.630437
0.668007
0.708056
0.750761
0.79631
0.844903
0.896756
0.952098
1.01118
1.07425
1.14161
1.21354
1.29038
1.37247
1.46018
1.55391
1.65408
1.76115
1.87563
1.99804
2.12896
2.26902
2.4189
2.57935
2.75115
2.93521
3.13249
3.34405
3.57109
3.81489
4.07692
4.35881
4.66239
4.98969
5.34306
5.72515
6.13895
6.58797
7.07618
7.60824
8.18953
8.82635
9.52602
10.2972
11.1494
12.0947
13.1423
14.311
15.5837
17.0157
18.3538
19.9505
19.6481
0.111733
0.115607
0.115418
0.117024
0.120503
0.124469
0.12869
0.133436
0.138785
0.144687
0.151116
0.158089
0.165623
0.173733
0.182435
0.191752
0.20171
0.21234
0.223676
0.235757
0.248622
0.262321
0.276903
0.292423
0.308942
0.326526
0.345246
0.365176
0.3864
0.409009
0.433096
0.458763
0.486125
0.5153
0.546414
0.579601
0.61501
0.652798
0.693132
0.736192
0.78217
0.83127
0.883712
0.939732
0.999579
1.06352
1.13185
1.20486
1.2829
1.3663
1.45545
1.55075
1.65264
1.76159
1.8781
2.00271
2.13602
2.27866
2.43133
2.59479
2.76986
2.95744
3.15853
3.37422
3.60572
3.85438
4.1217
4.40935
4.71922
5.05344
5.41442
5.80492
6.22808
6.68755
7.18753
7.73292
8.32948
8.98394
9.70425
10.4999
11.3817
12.3631
13.457
14.6829
16.0391
17.5658
19.0994
20.8269
21.1815
0.105147
0.108281
0.108449
0.109965
0.113031
0.116629
0.120536
0.124942
0.12992
0.135438
0.141478
0.148052
0.155179
0.162875
0.17116
0.180057
0.189595
0.199806
0.210724
0.222392
0.234851
0.248151
0.262345
0.27749
0.293648
0.310888
0.329284
0.348914
0.369862
0.392222
0.416093
0.441579
0.468795
0.497864
0.528916
0.562089
0.597535
0.635415
0.675899
0.719173
0.76543
0.81488
0.867749
0.924273
0.984709
1.04933
1.11843
1.19232
1.27133
1.35582
1.44617
1.54281
1.64616
1.75671
1.87497
2.00149
2.13688
2.28178
2.43691
2.60304
2.78099
2.97171
3.1762
3.39558
3.6311
3.88413
4.15621
4.44906
4.76462
5.10509
5.47296
5.87107
6.30271
6.77165
7.28229
7.83977
8.45014
9.12056
9.85953
10.6772
11.5858
12.5997
13.7352
15.0132
16.4442
18.0591
19.7668
21.6242
22.6026
0.0980235
0.100458
0.100894
0.102338
0.105035
0.108278
0.111872
0.115942
0.120551
0.125683
0.131324
0.137487
0.144192
0.151457
0.159302
0.167754
0.176842
0.1866
0.197064
0.208278
0.220287
0.23314
0.246894
0.261608
0.277346
0.294178
0.312179
0.331433
0.352025
0.374051
0.397613
0.422819
0.449785
0.478639
0.509513
0.542549
0.5779
0.615734
0.656222
0.699554
0.745926
0.795554
0.848665
0.905503
0.966327
1.03141
1.10106
1.17558
1.25532
1.34064
1.43193
1.52961
1.63412
1.74595
1.86562
1.9937
2.13079
2.27755
2.4347
2.60304
2.7834
2.97674
3.18408
3.40656
3.64546
3.90217
4.17826
4.47549
4.79587
5.14161
5.51528
5.91983
6.35861
6.83552
7.35514
7.92278
8.54478
9.22863
9.9833
10.8196
11.7507
12.7923
13.9631
15.286
16.781
18.4758
20.3336
22.3241
23.7721
0.0903688
0.0921743
0.0927908
0.0941689
0.096537
0.0994395
0.102721
0.106456
0.110695
0.115435
0.120668
0.126408
0.132675
0.139488
0.146871
0.154851
0.163459
0.17273
0.182704
0.193424
0.204938
0.217297
0.230558
0.244783
0.260039
0.276397
0.293936
0.31274
0.332897
0.354505
0.377668
0.402498
0.429115
0.457646
0.488231
0.52101
0.556141
0.593796
0.634147
0.677388
0.723723
0.773367
0.826552
0.883524
0.944548
1.00991
1.0799
1.15485
1.23509
1.32101
1.41298
1.51145
1.61685
1.72969
1.85049
1.97982
2.1183
2.26659
2.42543
2.59562
2.77801
2.97356
3.18333
3.40847
3.65027
3.91015
4.18972
4.49076
4.81531
5.16565
5.54439
5.95455
6.39956
6.88346
7.41092
7.98746
8.6196
9.31514
10.0835
10.936
11.8864
12.9519
14.1528
15.5142
17.0629
18.8265
20.8063
22.9184
24.8085
0.0821945
0.0834651
0.0841818
0.0854876
0.0875611
0.0901374
0.0931048
0.0965029
0.10037
0.10471
0.109525
0.114827
0.120637
0.126977
0.133873
0.141352
0.149448
0.158198
0.167642
0.177825
0.188797
0.200611
0.213326
0.227004
0.241714
0.257531
0.274534
0.292809
0.312448
0.333551
0.356224
0.380581
0.406744
0.434842
0.465015
0.497413
0.532197
0.569533
0.609606
0.652608
0.698746
0.748239
0.801325
0.85825
0.919286
0.984715
1.05484
1.13
1.21053
1.29681
1.38923
1.48823
1.59426
1.70783
1.82946
1.95974
2.09929
2.24879
2.40897
2.58064
2.76469
2.96206
3.17384
3.40119
3.64541
3.90796
4.19046
4.49472
4.82281
5.17706
5.56012
5.97505
6.4254
6.91523
7.44934
8.03339
8.67407
9.37941
10.1591
11.0249
11.9913
13.076
14.3011
15.6932
17.2839
19.1027
21.1742
23.3897
25.5697
0.0735214
0.0743667
0.0751125
0.0763306
0.0781369
0.0804006
0.083052
0.0861085
0.0895975
0.0935296
0.0979118
0.102759
0.108092
0.113936
0.120316
0.127265
0.134814
0.143005
0.151877
0.161478
0.171859
0.183073
0.195183
0.208252
0.222351
0.237555
0.253945
0.271611
0.290645
0.311148
0.333229
0.357004
0.382599
0.410146
0.439784
0.471668
0.505958
0.542829
0.582462
0.625056
0.670819
0.719975
0.772762
0.829433
0.890259
0.95553
1.02555
1.10066
1.1812
1.26755
1.36012
1.45933
1.56565
1.67959
1.80169
1.93252
2.07271
2.22295
2.38399
2.55663
2.74176
2.94036
3.15349
3.38235
3.62824
3.89263
4.17715
4.48364
4.81418
5.17113
5.55716
5.97538
6.42935
6.9232
7.46179
8.05085
8.69718
9.40896
10.196
11.0705
12.0471
13.1442
14.3846
15.7962
17.4138
19.2696
21.4019
23.7029
26.0291
0.0643798
0.0649163
0.065632
0.0667405
0.0682998
0.0702628
0.0725949
0.0753026
0.0784057
0.0819185
0.0858534
0.0902274
0.0950627
0.100385
0.106223
0.112609
0.119578
0.127171
0.13543
0.144404
0.154144
0.164708
0.176156
0.188554
0.201974
0.216495
0.232198
0.249174
0.267518
0.287333
0.308728
0.331821
0.356743
0.383623
0.41261
0.443854
0.477522
0.513788
0.552839
0.594873
0.640104
0.688758
0.741075
0.797312
0.857744
0.922662
0.992377
1.06722
1.14756
1.23376
1.32623
1.42542
1.53178
1.64583
1.76812
1.89921
2.03976
2.19045
2.35203
2.52531
2.7112
2.91067
3.1248
3.35478
3.60194
3.86775
4.15386
4.46211
4.79459
5.15371
5.54214
5.96301
6.41991
6.91703
7.45927
8.0524
8.70329
9.4202
10.2131
11.0943
12.0786
13.1848
14.4362
15.8612
17.4955
19.3739
21.5375
23.8894
26.2267
0.0548123
0.0551519
0.0557908
0.0567636
0.0580881
0.059759
0.0617665
0.0641155
0.0668217
0.0699016
0.0733719
0.077252
0.0815657
0.0863403
0.0916057
0.0973959
0.103748
0.110703
0.118305
0.126604
0.135653
0.145509
0.156235
0.1679
0.180575
0.194339
0.209276
0.225478
0.243042
0.262074
0.282684
0.304992
0.329126
0.355224
0.383432
0.413907
0.446813
0.48233
0.520644
0.561961
0.606493
0.654469
0.706134
0.761747
0.821584
0.885942
0.955133
1.0295
1.10939
1.1952
1.28733
1.38622
1.49236
1.60624
1.72841
1.85947
2.00006
2.15086
2.31264
2.48621
2.67247
2.87241
3.08712
3.31779
3.56576
3.8325
4.11967
4.42912
4.76297
5.1236
5.51373
5.93649
6.39548
6.89492
7.43971
8.03566
8.68968
9.41004
10.2068
11.0921
12.0811
13.1923
14.4491
15.8799
17.52
19.4038
21.5676
23.9161
26.2149
0.0448782
0.0451131
0.0456414
0.0464531
0.0475467
0.0489291
0.0506048
0.0525825
0.0548779
0.0575092
0.0604956
0.0638593
0.0676259
0.0718239
0.0764851
0.0816447
0.087341
0.093616
0.100516
0.10809
0.116394
0.125485
0.135428
0.14629
0.158147
0.171077
0.185167
0.200509
0.2172
0.235348
0.255066
0.276474
0.299704
0.324891
0.352187
0.381748
0.413744
0.448351
0.485764
0.526185
0.569831
0.616934
0.667738
0.722507
0.78152
0.845074
0.913485
0.987094
1.06626
1.15137
1.24284
1.34111
1.44666
1.55999
1.68165
1.81225
1.95242
2.10285
2.26431
2.4376
2.62365
2.82342
3.03801
3.26861
3.51656
3.78334
4.07058
4.38016
4.71419
5.07501
5.46535
5.88835
6.34758
6.8472
7.39212
7.98812
8.64204
9.3621
10.1582
11.0424
12.0296
13.138
14.3903
15.8143
17.4428
19.3087
21.4361
23.7309
25.9586
0.0346515
0.03484
0.0352359
0.0358661
0.0367262
0.0378173
0.039151
0.0407434
0.042612
0.0447761
0.0472577
0.0500813
0.0532742
0.0568664
0.0608909
0.0653843
0.070386
0.0759393
0.0820912
0.0888919
0.096397
0.104667
0.113765
0.123761
0.134729
0.146751
0.159914
0.174311
0.19004
0.20721
0.225934
0.246336
0.268546
0.292708
0.318966
0.347482
0.378427
0.411983
0.44834
0.487707
0.530301
0.576356
0.626119
0.679856
0.737848
0.800395
0.867816
0.94045
1.01866
1.10284
1.19341
1.29079
1.39549
1.508
1.62887
1.75871
1.89816
2.04791
2.20871
2.3814
2.56687
2.7661
2.98019
3.21032
3.45783
3.72418
4.01102
4.32021
4.65384
5.01426
5.40417
5.82667
6.2853
6.78423
7.32829
7.92316
8.57561
9.2937
10.0872
10.9678
11.9499
13.0514
14.2935
15.7028
17.3077
19.1386
21.1973
23.4002
25.392
0.0242163
0.0243719
0.0246234
0.0250599
0.0256779
0.0264676
0.0274456
0.0286358
0.0300586
0.0317349
0.0336883
0.0359455
0.0385358
0.0414906
0.0448443
0.0486344
0.052901
0.0576885
0.0630444
0.0690207
0.075673
0.0830608
0.0912499
0.100311
0.110319
0.121356
0.133509
0.14687
0.161544
0.177636
0.195261
0.214546
0.23562
0.258626
0.283716
0.311049
0.340797
0.373145
0.408288
0.446431
0.487796
0.532618
0.581148
0.633652
0.690413
0.751732
0.817933
0.889357
0.96637
1.04936
1.13875
1.23499
1.33854
1.44993
1.56971
1.69847
1.83686
1.98558
2.14537
2.31707
2.50157
2.69985
2.913
3.14221
3.38879
3.65421
3.94012
4.24835
4.58097
4.94033
5.3291
5.75032
6.20753
6.70482
7.24695
7.83951
8.48911
9.20365
9.99257
10.8673
11.8416
12.9324
14.1595
15.5475
17.1186
18.9019
20.8652
22.9609
24.6104
0.0136602
0.0137515
0.0138575
0.0140966
0.0144581
0.0149287
0.0155334
0.0163027
0.0172589
0.0184235
0.019823
0.0214863
0.0234439
0.0257285
0.0283757
0.0314236
0.0349136
0.0388903
0.0434022
0.048501
0.0542432
0.0606901
0.0679065
0.0759628
0.0849351
0.0949058
0.105963
0.118201
0.13172
0.146629
0.163047
0.181097
0.200911
0.222633
0.246415
0.272418
0.300816
0.331795
0.365547
0.402286
0.442231
0.48562
0.532705
0.583753
0.639051
0.698899
0.763622
0.833564
0.909092
0.990599
1.0785
1.17325
1.27531
1.38521
1.5035
1.63078
1.76767
1.91489
2.07318
2.24336
2.42632
2.62305
2.83461
3.06218
3.30708
3.57075
3.85482
4.16111
4.49164
4.84874
5.23504
5.65352
6.10765
6.60144
7.13951
7.72731
8.37126
9.07899
9.85955
10.7238
11.6848
12.7584
13.9621
15.3188
16.8422
18.5635
20.4039
22.3878
23.5805
0.00306554
0.00302476
0.00299707
0.00303991
0.00312285
0.00325001
0.00346114
0.00378902
0.00425476
0.00488229
0.00570084
0.00674089
0.00803428
0.00961498
0.0115193
0.0137858
0.0164571
0.019578
0.023197
0.0273667
0.0321436
0.037588
0.0437661
0.0507493
0.0586129
0.0674391
0.0773167
0.0883401
0.100611
0.114239
0.12934
0.146041
0.164475
0.184787
0.207128
0.23166
0.258562
0.288015
0.320219
0.355383
0.393731
0.435501
0.480947
0.530337
0.583959
0.642118
0.705137
0.773362
0.84716
0.926925
1.01307
1.10606
1.20635
1.31447
1.43096
1.55642
1.6915
1.83687
1.99329
2.16157
2.34261
2.53736
2.74689
2.97237
3.21509
3.47649
3.75817
4.0619
4.38969
4.74382
5.12686
5.54173
5.99181
6.48099
7.01376
7.59538
8.23202
8.93096
9.7008
10.5518
11.4959
12.5477
13.7221
15.0401
16.5047
18.1529
19.8437
21.7061
22.3405
-0.00749381
-0.00775943
-0.00789602
-0.00804685
-0.00827224
-0.00851819
-0.00872349
-0.00886044
-0.00891107
-0.00884885
-0.00864088
-0.00825479
-0.007658
-0.00681646
-0.00569272
-0.00424764
-0.00243826
-0.000219772
0.00245632
0.00564314
0.00939697
0.0137781
0.018853
0.0246916
0.0313707
0.0389716
0.0475834
0.0573007
0.0682246
0.0804655
0.0941428
0.109379
0.126308
0.145075
0.165837
0.188755
0.214003
0.241768
0.27225
0.30566
0.342223
0.382179
0.425781
0.4733
0.525023
0.581258
0.642328
0.708582
0.780386
0.858132
0.942243
1.03316
1.13137
1.23738
1.35175
1.47505
1.60793
1.75108
1.90523
2.07121
2.24987
2.44219
2.64921
2.87208
3.11209
3.37064
3.64929
3.94982
4.27416
4.62454
5.00348
5.41383
5.85884
6.34228
6.86848
7.44248
8.07017
8.7584
9.51525
10.3502
11.2741
12.3002
13.4399
14.7129
16.1087
17.6743
19.1915
20.9249
21.0487
-0.0179527
-0.0185492
-0.0187553
-0.019099
-0.0196707
-0.0203236
-0.0209705
-0.0215979
-0.0221937
-0.0227264
-0.023159
-0.0234591
-0.0235932
-0.0235264
-0.0232215
-0.0226377
-0.021734
-0.0204647
-0.0187805
-0.0166295
-0.0139565
-0.0107003
-0.00679544
-0.00217175
0.00324645
0.00954087
0.0167998
0.0251182
0.0345973
0.0453474
0.0574842
0.0711349
0.0864351
0.103529
0.122567
0.143716
0.167155
0.193067
0.221653
0.253125
0.287708
0.325644
0.367188
0.41261
0.4622
0.516263
0.575128
0.639138
0.708664
0.784099
0.865861
0.954395
1.05018
1.15372
1.26558
1.38632
1.5166
1.65708
1.80849
1.97166
2.14743
2.33675
2.54066
2.76029
2.99689
3.25183
3.52667
3.8231
4.14304
4.48864
4.86232
5.26685
5.70537
6.18147
6.6993
7.26365
7.88002
8.55488
9.29563
10.111
11.0104
12.0056
13.1044
14.3258
15.6428
17.12
18.4459
20.0602
19.5541
-0.0282533
-0.029289
-0.0295125
-0.0300537
-0.0310182
-0.0321151
-0.0332297
-0.0343756
-0.0355474
-0.0367063
-0.0378116
-0.0388302
-0.0397297
-0.0404746
-0.0410267
-0.0413456
-0.0413906
-0.0411167
-0.0404739
-0.0394131
-0.0378779
-0.0358073
-0.033138
-0.0297996
-0.0257174
-0.0208104
-0.0149894
-0.00816263
-0.000226707
0.00892642
0.0194152
0.0313638
0.0449077
0.06019
0.0773694
0.0966076
0.118079
0.141975
0.168492
0.197845
0.230262
0.265982
0.305262
0.348374
0.395606
0.447267
0.503683
0.565199
0.632186
0.705037
0.784167
0.870023
0.963079
1.06384
1.17286
1.29071
1.41802
1.55546
1.70376
1.86371
2.03616
2.22205
2.42238
2.63827
2.87094
3.12173
3.39215
3.68385
3.99869
4.33875
4.70636
5.10418
5.53523
6.0029
6.51112
7.06439
7.66787
8.3275
9.04999
9.84319
10.715
11.6759
12.7293
13.8943
15.1252
16.5099
17.6312
19.1293
17.9849
-0.0383454
-0.0399214
-0.0400982
-0.0408497
-0.0422615
-0.0438409
-0.0454514
-0.0471461
-0.0489268
-0.0507449
-0.0525555
-0.0543274
-0.0560274
-0.0576205
-0.0590682
-0.0603314
-0.0613689
-0.0621366
-0.0625867
-0.0626683
-0.0623283
-0.0615055
-0.0601375
-0.0581563
-0.0554865
-0.0520477
-0.0477539
-0.0425113
-0.0362184
-0.0287688
-0.0200436
-0.0099177
0.00174288
0.0150824
0.0302556
0.0474269
0.0667727
0.0884828
0.112755
0.139805
0.169859
0.203158
0.23996
0.280538
0.325179
0.374194
0.427907
0.486667
0.550839
0.620819
0.697021
0.779888
0.869894
0.967541
1.07337
1.18796
1.31193
1.44595
1.59072
1.74704
1.91572
2.0977
2.29395
2.50557
2.73376
2.97982
3.24519
3.53149
3.84052
4.17427
4.53496
4.92515
5.34769
5.8058
6.30316
6.84396
7.43293
8.07551
8.77763
9.54621
10.3875
11.3108
12.3145
13.4187
14.5564
15.8443
16.7504
18.1323
16.5526
-0.0481842
-0.0503847
-0.0504418
-0.0514277
-0.0533475
-0.0554486
-0.0575841
-0.0598606
-0.0622853
-0.0647961
-0.0673457
-0.0699043
-0.0724404
-0.0749191
-0.077301
-0.0795492
-0.081622
-0.0834766
-0.0850682
-0.0863458
-0.0872569
-0.0877424
-0.0877427
-0.0871882
-0.0860059
-0.084117
-0.0814365
-0.0778733
-0.0733235
-0.0676837
-0.0608345
-0.0526524