/*--------------------------------*- C++ -*----------------------------------*\
  =========                 |
  \\      /  F ield         | OpenFOAM: The Open Source CFD Toolbox
   \\    /   O peration     | Website:  https://openfoam.org
    \\  /    A nd           | Version:  11
     \\/     M anipulation  |
\*---------------------------------------------------------------------------*/
FoamFile
{
    format      ascii;
    class       surfaceScalarField;
    location    "400";
    object      phi;
}
// * * * * * * * * * * * * * * * * * * * * * * * * * * * * * * * * * * * * * //

dimensions      [0 3 -1 0 0 0 0];

internalField   nonuniform List<scalar> 
62845
(
48153.4
-552789
554275
45153.2
-525584
528584
43290.6
-499127
500990
40940.8
-474200
476550
39019.4
-450387
452308
36996.7
-427828
429851
35200.9
-406343
408139
33425.8
-385951
387726
31773.3
-366552
368205
30176.3
-348140
349737
28685.7
-330649
332139
27270.1
-314034
315450
25904.7
-298230
299595
24636.4
-283255
284524
23398.9
-268990
270228
22261.3
-255480
256618
21152.6
-242606
243715
20100.8
-230414
231466
19121.1
-218828
219808
18183.9
-207806
208743
17274.6
-197346
198255
16437
-187434
188271
15627.2
-177982
178791
14859.7
-169033
169800
14134.6
-160528
161253
13437
-152439
153136
12781.6
-144779
145434
12153.7
-137489
138117
11567.9
-130584
131170
10980.2
-123991
124579
10449.1
-117768
118299
9930.6
-111841
112359
9439.36
-106224
106715
8975.31
-100874
101338
8523.85
-95805.2
96256.7
8099.52
-90987.7
91412
7687.77
-86421.3
86833
7303.14
-82076.5
82461.2
6931.09
-77951.7
78323.8
6574.59
-74037.8
74394.3
6233.66
-70321.4
70662.3
5908.37
-66791.9
67117.2
5595.9
-63439.1
63751.6
5297.77
-60256.7
60554.8
5011.2
-57232.8
57519.4
4737.74
-54361.5
54635
4473.16
-51633.8
51898.3
4221.95
-49045
49296.2
3979.9
-46583.3
46825.4
3748.6
-44247.2
44478.5
3526.75
-42026.3
42248.1
3314.5
-39917.5
40129.7
3109.09
-37912
38117.4
2915.03
-36009.6
36203.7
2728.1
-34200.2
34387.1
2548.46
-32479.2
32658.8
2377.67
-30846.5
31017.3
2212.97
-29293.6
29458.3
2057.38
-27817.2
27972.8
1908.12
-26414.6
26563.9
1765.29
-25081.4
25224.2
1629.01
-23813.1
23949.4
1499.35
-22608.3
22738
1376.4
-21462.7
21585.6
1258.81
-20373.3
20490.9
1148.08
-19337.3
19448.1
1041.41
-18351.8
18458.5
940.303
-17415.3
17516.4
846.239
-16526.4
16620.5
756.422
-15678
15767.8
670.905
-14872.8
14958.4
591.178
-14106.7
14186.4
517.269
-13379.6
13453.5
446.411
-12685.9
12756.8
381.511
-12027.1
12092
320.098
-11401.3
11462.7
263.662
-10805.9
10862.3
211.732
-10240.2
10292.2
164.394
-9703.01
9750.35
121.419
-9192.8
9235.78
83.6275
-8709.49
8747.28
49.3413
-8251.95
8286.24
23.1612
-7818.12
7844.3
-2.7622
-7418.48
7444.4
-12.7102
-7020.87
7030.82
-31.1665
-6715.69
6734.15
-18.2369
-6299.17
6286.24
-39.6846
-6279.77
6301.22
-5610.25
5570.57
75052.6
-549129
71211.7
-521743
67702.5
-495618
64290.2
-470788
61081.3
-447178
57998.9
-424746
55096.6
-403441
52326.1
-383180
49695.2
-363921
47205.1
-345650
44834.8
-328279
42579.4
-311779
40456.4
-296107
38420
-281219
36500.5
-267071
34667.9
-253647
32937.2
-240876
31278.7
-228755
29707.1
-217257
28222.3
-206321
26824.3
-195948
25469.1
-186079
24200.4
-176713
22974.4
-167807
21820.2
-159374
20737.8
-151356
19697.8
-143739
18700.2
-136491
17744.9
-129629
16861.1
-123107
16019.4
-116926
15205.4
-111026
14418.8
-105438
13688.9
-100144
12986.5
-95102.8
12326
-90327.2
11692.9
-85788.2
11087.3
-81470.9
10504.7
-77369.2
9955.38
-73488.5
9429.18
-69795.2
8927.61
-66290.4
8449.27
-62960.7
7991.32
-59798.7
7553.87
-56795.4
7136.99
-53944.6
6739.36
-51236.1
6358.16
-48663.8
5994.99
-46220.2
5647.06
-43899.3
5315.95
-41695.2
4998.89
-39600.4
4697.46
-37610.5
4407.44
-35719.6
4130.42
-33923.1
3867.95
-32216.7
3615.83
-30594.4
3375.61
-29053.3
3145.95
-27587.6
2926.97
-26195.6
2718.75
-24873.1
2519.94
-23614.3
2332.07
-22420.4
2150.9
-21281.5
1979.38
-20201.8
1817.58
-19175.5
1664.12
-18198.4
1517.62
-17268.8
1378.14
-16387
1245.75
-15545.6
1121.89
-14749
1005.2
-13990
892.911
-13267.3
787.898
-12580.9
690.203
-11929.4
598.076
-11309.1
511.731
-10719.5
431.274
-10159.8
356.556
-9628.29
287.528
-9123.78
224.567
-8646.53
166.977
-8194.36
117.056
-7768.2
70.3247
-7371.74
37.9016
-6988.45
1.02249
-6678.82
-5.64613
-6292.5
-45.7127
-6239.71
-5655.96
102036
-543795
96901.3
-516609
92042.6
-490759
87401.8
-466147
83016.7
-442793
78835.4
-420564
74858.7
-399464
71086.5
-379408
67504.7
-360339
64098.8
-342244
60868.7
-325049
57799.7
-308710
54891.8
-293199
52115.6
-278443
49485.6
-264441
46987.1
-251149
44619.9
-238508
42384
-226519
40235.4
-215108
38203.1
-204289
36258
-194003
34429
-184250
32687
-174971
31046.4
-166166
29463.3
-157791
27966.8
-149860
26542.3
-142314
25204.3
-135153
23923.5
-128348
22699.8
-121884
21518.6
-115745
20423.6
-109931
19385.5
-104399
18375.2
-99134
17436.3
-94163.9
16525.2
-89416.1
15656.3
-84919.3
14832.5
-80647.2
14058.3
-76594.9
13311.8
-72742
12603.1
-69086.6
11926.7
-65613.9
11280.9
-62315
10667.4
-59185.2
10081.9
-56209.8
9522.89
-53385.7
8990.59
-50703.8
8482.16
-48155.3
7997.71
-45735.7
7534.44
-43436
7092.45
-41253.2
6671.86
-39179.8
6269.9
-37208.6
5888.11
-35337.8
5522.28
-33557.3
5173.95
-31868.4
4843.23
-30263.7
4525.89
-28736
4224.93
-27286.6
3938.97
-25909.7
3663.8
-24598
3403.8
-23354.3
3154.75
-22171.4
2921.02
-21047.8
2696.93
-19977.7
2482.54
-18961.1
2279.36
-17995.2
2087.42
-17076.9
1903.93
-16203.5
1731.78
-15373.4
1568.14
-14585.3
1411.68
-13833.6
1265.25
-13120.9
1127.49
-12443.1
995.781
-11797.7
872.154
-11185.5
756.382
-10603.8
647.601
-10051
545.905
-9526.59
451.303
-9029.17
363.556
-8558.78
282.5
-8113.3
209.586
-7695.28
141.85
-7304.01
87.5798
-6934.18
31.7851
-6623.02
6.33421
-6267.05
-49.7346
-6183.64
-5705.7
128823
-536980
122330
-510115
116157
-484587
110311
-460301
104725
-437207
99446.8
-415286
94432.8
-394450
89653.8
-374629
85139.1
-355825
80830.1
-337935
76741.4
-320960
72873.1
-304842
69166.2
-289492
65679.4
-274956
62353.8
-261115
59204.1
-247999
56200.6
-235505
53343.5
-223662
50647.1
-212412
48082.2
-201724
45633.8
-191554
43316.7
-181932
41116
-172770
39017
-164067
37034.3
-155808
35138.4
-147964
33344.1
-140520
31636.5
-133446
30015.6
-126727
28466.7
-120335
27004.3
-114282
25613.8
-108541
24280.5
-103066
23019
-97872.5
21814.6
-92959.5
20681.9
-88283.4
19591.7
-83829.1
18558.6
-79614
17573.7
-75610.1
16638.7
-71806.9
15746.2
-68194
14896.2
-64763.9
14088.8
-61507.6
13316.7
-58413.2
12583
-55476.1
11884.8
-52687.5
11217.8
-50036.8
10583.5
-47521.1
9977.71
-45129.9
9401.93
-42860.2
8853.34
-40704.6
8329.17
-38655.7
7830.95
-36710.4
7354.45
-34861.3
6902.65
-33105.5
6469.87
-31435.6
6057.64
-29851.5
5667.5
-28345.9
5293.76
-26912.9
4937.95
-25553.9
4601.58
-24261.6
4278.97
-23031.7
3973.06
-21865.5
3679.63
-20754.4
3403
-19701.1
3140.38
-18698.5
2890.39
-17745.2
2651.65
-16838.2
2427.05
-15978.9
2212.35
-15158.7
2009.03
-14382
1817.09
-13641.6
1633.81
-12937.6
1460.59
-12269.9
1298.3
-11635.4
1144.51
-11031.7
999.258
-10458.5
862.641
-9914.39
734.318
-9398.27
614.045
-8908.9
502.004
-8446.74
397.611
-8008.91
302.079
-7599.75
213.215
-7215.15
137.342
-6858.3
62.8141
-6548.49
18.1052
-6222.34
-53.4846
-6112.05
-5759.18
155246
-528723
147427
-502296
139975
-477135
132910
-453236
126211
-430508
119822
-408897
113756
-388385
108014
-368887
102552
-350363
97369.8
-332752
92452.2
-316042
87755.3
-300145
83322.9
-285060
79096.3
-270729
75090
-257109
71274.5
-244184
67664.3
-231895
64229.9
-220228
60956.7
-209138
57859.1
-198626
54922.3
-188618
52117.1
-179127
49457.8
-170111
46944.3
-161554
44547.4
-153411
42267
-145684
40102.8
-138356
38040.4
-131383
36079.4
-124766
34219.9
-118475
32461.8
-112524
30761.3
-106840
29176.5
-101481
27663.8
-96359.7
26208.5
-91504.2
24825.1
-86900
23528.2
-82532.2
22284.2
-78370
21101.8
-74427.7
19975.3
-70680.4
18903.2
-67121.9
17884
-63744.7
16913.5
-60537
15990.1
-57489.8
15109.6
-54595.6
14272.1
-51849.9
13474.6
-49239.3
12714.4
-46760.9
11991.5
-44407
11303.1
-42171.8
10646.4
-40047.9
10021.5
-38030.7
9425.51
-36114.4
8860.01
-34295.8
8319.31
-32564.8
7806.35
-30922.6
7316.9
-29362
6849.59
-27878.6
6407.38
-26470.7
5984.57
-25131.1
5582.69
-23859.7
5200.34
-22649.3
4836.16
-21501.3
4490.19
-20408.4
4161.06
-19372
3847.39
-18384.9
3550.63
-17448.4
3269.4
-16556.9
2999.49
-15709
2745.17
-14904.4
2503.64
-14140.5
2273.55
-13411.6
2057.69
-12721.8
1851.91
-12064.1
1657.1
-11440.6
1472.87
-10847.5
1299.13
-10284.8
1135.01
-9750.27
980.691
-9243.96
835.666
-8763.88
699.672
-8310.74
572.756
-7881.99
455.322
-7482.32
346.104
-7105.93
250.032
-6762.23
157.215
-6455.68
94.239
-6159.36
8.30849
-6026.12
-5750.87
181272
-519086
172116
-493141
163433
-468452
155166
-444969
147327
-422669
139885
-401455
132813
-381312
126094
-362169
119700
-343968
113644
-326697
107883
-310281
102431
-294693
97229.5
-279858
92307.4
-265807
87620.4
-252422
83168.7
-239732
78937.2
-227663
74925.8
-216216
71119.8
-205332
67489.7
-194996
64050
-185178
60786
-175863
57682.8
-167008
54725.8
-158597
51914.9
-150600
49264.5
-143033
46716.1
-135807
44313.4
-128981
42027.1
-122480
39871.7
-116320
37788.8
-110441
35851.1
-104903
33971.3
-99601.6
32192.8
-94581.3
30515.7
-89827.1
28910.8
-85295.1
27378
-80999.4
25933.4
-76925.3
24552.1
-73046.4
23239.9
-69368.2
21992.6
-65874.5
20804.2
-62556.4
19673.3
-59406.2
18598.6
-56415.1
17575.6
-53572.7
16600.2
-50874.4
15673.6
-48312.8
14791.8
-45879
13951.7
-43567
13150.7
-41370.8
12390.2
-39287.4
11665.8
-37306.4
10974.9
-35423.5
10317.5
-33638.4
9693.55
-31940.9
9097.48
-30326.6
8530.75
-28795.3
7991.98
-27339.8
7478.37
-25957
6989.97
-24642.7
6523.97
-23393.7
6083.27
-22208.6
5662.22
-21080.2
5263.69
-20009.9
4882.05
-18990.3
4521.56
-18024.4
4176.62
-17103.5
3850.07
-16230.4
3540.51
-15399.4
3246.55
-14610.5
2965.44
-13859.4
2701.35
-13147.5
2450.12
-12470.5
2211.79
-11825.8
1985.28
-11214.1
1771.45
-10633.7
1569.2
-10082.5
1378.2
-9559.27
1197.97
-9063.72
1028.24
-8594.14
868.712
-8151.22
719.217
-7732.5
580.081
-7343.18
450.216
-6976.06
333.694
-6645.71
222.524
-6344.51
139.805
-6076.65
39.2386
-5925.55
-5711.64
206795
-508105
196339
-482685
186413
-458526
177005
-435561
168041
-413704
159549
-392963
151470
-373233
143804
-354503
136536
-336701
129608
-319768
123048
-303721
116797
-288442
110871
-273932
105239
-260175
99900.8
-247084
94813
-234644
89989.7
-222840
85401.5
-211628
81048.3
-200979
76915.1
-190863
73001.9
-181265
69264.6
-172126
65717.8
-163461
62346.6
-155225
59151
-147405
56101.5
-139984
53212.7
-132918
50469.9
-126238
47858.4
-119868
45378
-113839
43028.6
-108092
40781.1
-102655
38649.9
-97470.4
36635
-92566.3
34707
-87899.2
32880.6
-83468.7
31142.6
-79261.4
29484.2
-75267
27912.7
-71474.9
26417.8
-67873.4
24995.2
-64451.9
23642
-61203.1
22355.2
-58119.4
21130.5
-55190.4
19965.1
-52407.2
18857.4
-49766.8
17801.8
-47257.2
16798.3
-44875.5
15842.5
-42611.2
14934.5
-40462.8
14068.7
-38421.5
13246.3
-36484.1
12463.3
-34640.5
11718.2
-32893.2
11008.2
-31230.9
10333.3
-29651.7
9690.69
-28152.7
9079.01
-26728.1
8496.87
-25374.9
7944.28
-24090.1
7418.46
-22867.9
6916.58
-21706.8
6440.09
-20603.8
5987.6
-19557.4
5557.71
-18560.4
5146.22
-17612.9
4758.77
-16716
4388.35
-15860
4037.76
-15048.8
3702.85
-14275.6
3387.76
-13544.3
3085.59
-12845.3
2800.46
-12185.4
2529.53
-11554.9
2273.43
-10958
2030.57
-10390.8
1800.42
-9852.38
1583.01
-9341.86
1377.31
-8858.02
1183.27
-8400.1
1000.45
-7968.4
828.678
-7560.73
667.819
-7182.32
517.529
-6825.77
380.35
-6508.53
250.349
-6214.51
147.173
-5973.47
32.0572
-5810.44
-5679.58
231776
-495796
220065
-470974
208943
-447404
198367
-424986
188338
-403675
178811
-383435
169756
-364178
161158
-345905
152989
-328531
145232
-312012
137859
-296348
130869
-281452
124232
-267295
117905
-253848
111902
-241081
106222
-228964
100807
-217425
95671.5
-206493
90785.8
-196093
86149.7
-186227
81733.9
-176849
77552.8
-167945
73577
-159485
69791.8
-151440
66211.6
-143824
62792.4
-136565
59563.4
-129689
56480.6
-123155
53558.4
-116946
50782.3
-111063
48137.5
-105447
45623.9
-100142
43241.5
-95087.9
40975.5
-90300.3
38811.3
-85735
36763.5
-81420.8
34815.9
-77313.8
32964.2
-73415.2
31202.5
-69713.2
29526.3
-66197.2
27934.3
-62859.9
26419.1
-59687.9
24979.2
-56679.6
23607.5
-53818.7
22305.4
-51105.1
21065.5
-48527
19885.2
-46076.8
18762.8
-43753.1
17697.1
-41545.5
16680.7
-39446.5
15715.2
-37456
14793.5
-35562.4
13919.8
-33766.8
13087
-32060.5
12295.2
-30439
11542.8
-28899.3
10825.8
-27435.7
10144.1
-26046.4
9494.84
-24725.6
8878.1
-23473.3
8291.03
-22280.8
7732.26
-21148
7201.79
-20073.3
6696.8
-19052.4
6215.91
-18079.5
5760.51
-17157.5
5326.4
-16281.9
4914.98
-15448.5
4522.08
-14655.9
4151.83
-13905.3
3797.33
-13189.8
3462.71
-12510.7
3143.8
-11866.5
2842.39
-11253.5
2556.03
-10671.6
2284.58
-10119.3
2027.44
-9595.24
1783.78
-9098.2
1553.5
-8627.75
1335.74
-8182.35
1130.28
-7762.93
936.752
-7367.2
754.816
-7000.39
584.182
-6655.14
426.811
-6351.16
278.306
-6066
153.985
-5849.15
24.7932
-5681.25
-5654.78
256112
-482176
243179
-458041
230891
-435116
219223
-413318
208145
-392597
197598
-372888
187612
-354192
178098
-336392
169071
-319504
160516
-303457
152359
-288191
144630
-273723
137283
-259949
130305
-246870
123681
-234456
117380
-222664
111403
-211448
105721
-200810
100332
-190705
95193.2
-181088
90333.5
-171989
85694.1
-163305
81304.1
-155095
77134.2
-147270
73154.9
-139845
69395.3
-132805
65811.5
-126106
62418
-119761
59170.8
-113699
56099.1
-107992
53188
-102536
50408.4
-97362
47760.1
-92439.6
45257.7
-87797.9
42886.5
-83363.8
40614.3
-79148.7
38461.6
-75161.1
36415.1
-71368.7
34470.4
-67768.5
32620.3
-64347.1
30861.7
-61101.3
29190.4
-58016.5
27598.9
-55088.1
26087.4
-52307.1
24648.5
-49666.2
23279.3
-47157.8
21979.9
-44777.4
20741.6
-42514.8
19564.4
-40368.3
18445.4
-38327.5
17380.3
-36390.9
16367.7
-34549.8
15403.3
-32802.4
14487.2
-31144.3
13614.9
-29566.8
12783.7
-28068.2
11995.1
-26647
11244.7
-25296
10531.2
-24012.1
9851.75
-22793.9
9206.3
-21635.4
8592.05
-20533.7
8007.6
-19488.8
7451.55
-18496.3
6925.29
-17553.3
6423.2
-16655.4
5945.28
-15804
5491.51
-14994.8
5061.9
-14226.3
4652.24
-13495.7
4263.91
-12801.5
3895.5
-12142.3
3544.26
-11515.3
3211.68
-10920.9
2896.37
-10356.3
2597.08
-9820.04
2313.55
-9311.72
2044.95
-8829.6
1790.5
-8373.3
1549.96
-7941.8
1322.58
-7535.56
1108.03
-7152.65
906.055
-6798.41
716.38
-6465.46
540.325
-6175.1
374.403
-5900.08
231.87
-5706.61
87.4779
-5536.85
-5567.31
279806
-467305
265680
-443915
252257
-421693
239498
-400558
227387
-380486
215880
-361382
204949
-343260
194578
-326021
184709
-309635
175341
-294089
166460
-279310
157992
-265255
149966
-251923
142352
-239256
135107
-227211
128215
-215772
121691
-204924
115476
-194595
109584
-184813
103987
-175491
98654.1
-166656
93600.5
-158252
88796.5
-150291
84227.4
-142701
79907.6
-135525
75778.6
-128676
71869.4
-122196
68136.1
-116028
64622.4
-110185
61255
-104624
58063.3
-99344.4
55032.3
-94331.1
52162.1
-89569.4
49408.7
-85044.6
46801.4
-80756.5
44339.9
-76687.2
41987.9
-72809
39753.9
-69134.8
37627.9
-65642.4
35608.1
-62327.3
33687.4
-59180.6
31861.3
-56190.5
30125.5
-53352.3
28475.6
-50657.2
26905.8
-48096.4
25414.6
-45666.6
23994.7
-43357.6
22644.8
-41164.9
21360.4
-39083.9
20140.2
-37107.3
18978.4
-35229.1
17873.5
-33444.9
16824.1
-31753
15824.6
-30144.7
14873.3
-28615.5
13970.4
-27165.3
13111.6
-25788.2
12292.7
-24477
11516.3
-23235.8
10775.5
-22053.1
10071.7
-20931.5
9404.82
-19866.9
8769.24
-18853.3
8163.56
-17890.6
7589.17
-16978.9
7043.22
-16109.5
6524.31
-15285.1
6031.03
-14501.5
5561.96
-13757.2
5115.7
-13049.4
4692.21
-12378
4290.1
-11740.1
3909.32
-11134.5
3547.1
-10558.7
3203.28
-10012.5
2877.3
-9494.06
2567.91
-9002.33
2274.82
-8536.5
1997.06
-8095.54
1734.05
-7678.79
1485.03
-7286.55
1250.01
-6917.63
1028.18
-6576.57
819.378
-6256.67
624.357
-5980.08
440.894
-5716.62
280.362
-5546.08
118.905
-5375.4
-5448.4
302742
-451227
287468
-428640
272940
-407166
259149
-386767
246035
-367373
233585
-348931
221753
-331429
210511
-314779
199859
-298983
189709
-283938
180074
-269676
170941
-256121
162250
-243232
153986
-230993
146149
-219374
138710
-208333
131639
-197853
124922
-187877
118528
-178419
112472
-169435
106710
-160895
101243
-152784
96024.7
-145073
91100.5
-137777
86396.6
-130821
81942.1
-124221
77707.6
-117962
73693.1
-112014
69854.5
-106347
66220.9
-100991
62763.1
-95886.6
59480.9
-91048.9
56374.2
-86462.7
53413.8
-82084.2
50598.1
-77940.8
47915.4
-74004.5
45371.4
-70265.1
42953
-66716.4
40654.3
-63343.7
38470.8
-60143.8
36392.3
-57102.2
34418.9
-54217
32540.2
-51473.7
30754.9
-48871.9
29058.5
-46400
27445.2
-44053.3
25910.7
-41823.1
24452.1
-39706.2
23065
-37696.8
21745
-35787.3
20490.8
-33974.9
19297.9
-32252
18163.6
-30618.7
17083.5
-29064.6
16057.6
-27589.6
15081.7
-26189.3
14152.8
-24859.3
13272.3
-23596.6
12431.8
-22395.3
11634
-21255.3
10874.7
-20172.3
10152.4
-19144.6
9467.23
-18168.1
8816.19
-17239.6
8193.75
-16356.5
7605.44
-15521.1
7045.65
-14725.3
6512.97
-13968.8
6005.97
-13250.2
5525.99
-12569.4
5070.23
-11922.2
4637.26
-11307.2
4224.48
-10721.7
3833.6
-10167.8
3462.39
-9641.29
3110.27
-9141.94
2776.11
-8668.17
2459.2
-8219.59
2158.72
-7795.06
1873.96
-7394.03
1604.35
-7016.94
1349.13
-6662.41
1107.78
-6335.23
880.201
-6029.09
666.483
-5766.37
464.962
-5515.1
284.772
-5365.89
107.109
-5197.73
-5341.29
324891
-433957
308484
-412233
292911
-391594
278103
-371959
264032
-353301
250681
-335581
237979
-318727
225926
-302726
214462
-287519
203588
-273064
193245
-259332
183432
-246308
174106
-233905
165251
-222138
156838
-210961
148837
-200332
141234
-190250
134029
-180672
127176
-171567
120663
-162921
114472
-154704
108605
-146917
103032
-139500
97724
-132468
92679.9
-125777
87900.1
-119442
83355.1
-113417
79015.6
-107674
74925.3
-102257
71025.7
-97091
67316.5
-92177.5
63797.8
-87530.1
60440.2
-83105.1
57264
-78908
54241.5
-74918.2
51368.2
-71131.2
48639.6
-67536.5
46044
-64120.8
43577
-60876.7
41232.8
-57799.6
39003.9
-54873.3
36884.6
-52097.7
34873.3
-49462.4
32958.3
-46957
31136.9
-44578.5
29405.9
-42322.4
27761.1
-40178.3
26196.7
-38141.8
24709.7
-36209.8
23295.8
-34373.4
21949.1
-32628.3
20671.3
-30974.2
19454.9
-29402.3
18298.7
-27908.3
17199.6
-26490.6
16154.9
-25144.6
15160.1
-23864.6
14214
-22650.4
13315
-21496.3
12461.7
-20402
11649.8
-19360.4
10876.5
-18371.3
10141.7
-17433.3
9442.66
-16540.6
8780.63
-15694.4
8148.65
-14889.2
7548.11
-14124.8
6978.9
-13399.6
6438.22
-12709.5
5923.27
-12054.5
5434
-11432.9
4969.54
-10842.7
4529.26
-10281.4
4110.53
-9749.07
3713.16
-9243.92
3335.76
-8764.54
2977.69
-8310.1
2637.97
-7879.87
2315.72
-7472.81
2010.11
-7088.42
1720.43
-6727.25
1446.12
-6388.11
1186.27
-6075.38
940.538
-5783.35
708.503
-5534.33
489.79
-5296.38
289.096
-5165.2
95.3355
-5003.97
-5245.96
346195
-415583
328729
-394767
312112
-374977
296347
-356194
281361
-338316
267127
-321346
253599
-305199
240764
-289890
228548
-275303
216965
-261482
205957
-248324
195480
-235831
185548
-223973
176117
-212707
167143
-201987
158640
-191829
150549
-182160
142856
-172979
135545
-164256
128617
-155993
122028
-148115
115762
-140651
109819
-133558
104171
-126820
98801.2
-120408
93696.2
-114337
88855.4
-108576
84264.1
-103083
79878.4
-97870.8
75712.6
-92925.3
71781.4
-88246.2
68026.2
-83774.9
64455.6
-79534.5
61065.2
-75517.6
57844.6
-71697.7
54785
-68071.6
51876.2
-64627.7
49110.8
-61355.4
46485.8
-58251.7
43986.6
-55300.4
41614.5
-52501.3
39358
-49841.2
37212.5
-47316.9
35173.8
-44918.2
33237.3
-42642
31394.5
-40479.5
29642.2
-38426.1
27977.7
-36477.3
26393.7
-34625.7
24887.2
-32866.9
23456.8
-31197.9
22096.7
-29614.1
20802.5
-28108.2
19571.5
-26677.3
18402.1
-25321.1
17289.9
-24032.5
16232.2
-22806.9
15227.4
-21645.7
14271.3
-20540.2
13361
-19491.7
12496.5
-18495.8
11676.3
-17551.1
10894.8
-16651.7
10151.8
-15797.6
9446.02
-14988.6
8775.94
-14219.1
8138.69
-13487.5
7532.92
-12793.8
6957.14
-12133.8
6409.93
-11507.3
5889.85
-10912.9
5396.42
-10349.3
4927.52
-9812.54
4482.17
-9303.71
4059.3
-8821.05
3657.78
-8363.01
3276.87
-7929.19
2915.17
-7518.18
2572.03
-7129.67
2246.62
-6763.01
1937.88
-6418.51
1645.25
-6095.48
1367.83
-5797.95
1105.54
-5521.07
857.401
-5286.19
623.42
-5062.4
407.344
-4949.12
199.612
-4796.24
-5046.35
366582
-396106
348086
-376271
330512
-357403
313806
-339487
297937
-322447
282862
-306272
268553
-290890
254937
-276274
242027
-262393
229736
-249191
218079
-236667
207012
-224764
196489
-213451
186482
-202700
176991
-192496
167956
-182794
159392
-173596
151256
-164842
143531
-156532
136175
-148637
129201
-141141
122566
-134016
116268
-127260
110280
-120831
104600
-114728
99198.8
-108936
94047.8
-103425
89175.7
-98210.7
84553.1
-93248.2
80150.7
-88522.9
75953.8
-84049.3
71984.1
-79805.2
68212.4
-75762.8
64623.8
-71929.1
61214.1
-68287.9
57972.8
-64830.4
54892.7
-61547.5
51966.3
-58429
49183.3
-55468.7
46539.4
-52656.4
44025.7
-49987.6
41637.9
-47453.3
39367.1
-45046.1
37209
-42760.1
35156.2
-40589.3
33207.3
-38530.6
31353.5
-36572.3
29590.4
-34714.2
27913.8
-32949.1
26322
-31275.2
24807.9
-29683.8
23367.1
-28173.3
21998.2
-26739.3
20698.2
-25377.3
19461.3
-24084.3
18283.3
-22854.5
17165.6
-21689.1
16100.9
-20581
15090.6
-19529.9
14130.6
-18531.6
13216.4
-17581.6
12346.6
-16681.3
11521.2
-15826.3
10737.3
-15013.7
9990.69
-14242
9281.24
-13509.6
8607.58
-12813.9
7966.81
-12153.1
7358.88
-11525.8
6780.97
-10929.3
6232.18
-10364.1
5709.72
-9826.81
5213.92
-9316.74
4743.19
-8832.98
4296.1
-8373.96
3871.63
-7938.54
3468.46
-7526.03
3085.96
-7135.67
2722.71
-6766.42
2377.94
-6418.24
2050.82
-6091.39
1740.45
-5785.1
1445.69
-5503.19
1166.43
-5241.81
901.351
-5021.1
650.713
-4811.77
416.612
-4715.02
190.998
-4570.63
-4855.35
386023
-375628
366526
-356775
348026
-338903
330436
-321897
313728
-305739
297859
-290402
282784
-275815
268459
-261950
254842
-248776
241917
-236266
229640
-224390
217968
-213091
206884
-202367
196360
-192176
186352
-182487
176859
-173302
167823
-164560
159244
-156262
151106
-148394
143365
-140896
136007
-133783
129031
-127040
122394
-120623
116095
-114532
110104
-108738
104408
-103239
99019.8
-98037.2
93881.6
-93072.5
88993.1
-88359.7
84354.2
-83884
79957.4
-79652.5
75767.5
-75615.3
71790.3
-71785.6
68009.7
-68148.4
64418.1
-64696.4
61005.5
-61417.7
57761.3
-58303.4
54678.3
-55346
51749.2
-52539.6
48965
-49872.3
46319.9
-47342.6
43803.8
-44937.1
41413.5
-42655.9
39140.4
-40487
36981.5
-38430.4
34928.1
-36477.1
32975.7
-34619.9
31121.4
-32859.9
29359.4
-31187
27682.4
-29598.2
26089
-28090.3
24573.3
-26657.6
23132.5
-25298.4
21763.6
-24008.3
20460.8
-22781.5
19224.2
-21617.8
18047.9
-20512.8
16929
-19462.1
15866.2
-18467.1
14855
-17520.4
13894.1
-16620.7
12980.5
-15767.7
12112.8
-14958.6
11288.1
-14189
10503.5
-13457.4
9757.63
-12763.8
9049
-12105.2
8376.1
-11480.2
7736.19
-10885.9
7128.04
-10321.2
6550.19
-9786.23
6001.49
-9278.11
5480.45
-8795.7
4985.38
-8337.91
4515.24
-7903.82
4068.82
-7492.13
3644.98
-7102.18
3242.36
-6733.06
2860.2
-6384.25
2497.42
-6055.46
2152.76
-5746.73
1825.63
-5457.97
1514.67
-5192.23
1219.5
-4946.65
938.294
-4739.9
671.801
-4545.27
418.939
-4462.16
177.032
-4328.72
-4678.32
404430
-354135
384036
-336382
364639
-319506
346225
-303483
328722
-288236
312087
-273767
296290
-260018
281288
-246947
267022
-234510
253492
-222736
240611
-211509
228392
-200872
216777
-190753
205752
-181150
195271
-172007
185321
-163351
175856
-155096
166877
-147284
158340
-139857
150230
-132786
142532
-126085
135217
-119724
128254
-113661
121659
-107937
115388
-102466
109425
-97276.7
103756
-92368.5
98366.9
-87683
93256.4
-83249.2
88413.1
-79040.7
83791.7
-75031
79405.1
-71228.7
75237.1
-67617.6
71277.5
-64188.8
67514.5
-60933.3
63937.7
-57840.9
60539.8
-54905.4
57310.4
-52116.7
54240.9
-49470
51325.2
-46956.6
48553.2
-44570.5
45918.9
-42302.8
43413.5
-40150.5
41035.6
-38109.1
38773.5
-36168.2
36621.2
-34324.9
34578.9
-32577.5
32636.2
-30917.3
30788.9
-29339.7
29033.9
-27843.2
27364
-26420.5
25779.2
-25072.8
24270.8
-23790
22837.2
-22574.8
21474.3
-21418.6
20179
-20322.5
18947
-19280.8
17776.8
-18292
16664.2
-17354.4
15604.8
-16461
14599.9
-15615.8
13645.3
-14813.1
12735.2
-14048.6
11871.1
-13324.9
11051.4
-12637.7
10271.9
-11984.3
9529.72
-11363
8824.84
-10775.3
8155.79
-10216.9
7520.4
-9685.81
6916.23
-9182.06
6342.23
-8704.1
5796.8
-8250.27
5279.03
-7820.13
4787.04
-7411.84
4319.81
-7024.9
3876.12
-6658.49
3454.78
-6311.73
3054.71
-5984.18
2674.82
-5675.56
2313.86
-5385.77
1970.9
-5115.02
1644.91
-4866.24
1335.11
-4636.85
1039.48
-4444.26
759.023
-4264.82
490.645
-4193.78
235.091
-4073.17
-4443.22
421818
-331760
400527
-315091
380321
-299300
361098
-284260
342859
-269997
325517
-256425
309028
-243529
293378
-231297
278522
-219655
264388
-208602
250976
-198097
238226
-188122
226110
-178636
214597
-169638
203674
-161083
193295
-152973
183432
-145232
174069
-137921
165163
-130951
156713
-124336
148675
-118047
141034
-112084
133791
-106417
126900
-101047
120348
-95914
114149
-91077.2
108228
-86448.5
102617
-82071.5
97290.5
-77922.7
92216.7
-73966.9
87402.9
-70217.2
82826.9
-66652.8
78481.5
-63272.2
74351.7
-60059.1
70426
-57007.6
66696.9
-54111.8
63152.6
-51361.2
59785.7
-48749.8
56584.6
-46268.9
53543.4
-43915.3
50651.7
-41678.8
47905.1
-39556.2
45294.8
-37540.3
42812.2
-35626.4
40452.6
-33808.7
38211.9
-32084.1
36081
-30446.7
34054.4
-28890.6
32129
-27414.2
30298.9
-26013.1
28561.2
-24682.8
26905.9
-23417.5
25335.7
-22219.8
23840.5
-21079.6
22420.2
-19998.3
21070.6
-18972.9
19787.2
-17997.5
18567.2
-17072
17406.3
-16193.5
16305.7
-15360.5
15258.4
-14568.5
14261.4
-13816.2
13316.2
-13103.3
12415.5
-12424.2
11560.8
-11783
10747.7
-11171.2
9976.16
-10591.5
9241.99
-10041.1
8544.27
-9519.15
7881.73
-9023.28
7252.28
-8552.61
6654.16
-8105.98
6086.3
-7682.41
5546.59
-7280.42
5034.07
-6899.32
4547.28
-6538.11
4084.89
-6196.09
3645.81
-5872.65
3228.78
-5567.15
2832.36
-5279.15
2455.96
-5009.37
2098.01
-4757.07
1757.41
-4525.64
1433.52
-4312.96
1123.84
-4134.58
829.548
-3970.53
545.965
-3910.2
275.788
-3802.99
-4167.44
438070
-308487
415985
-293006
394970
-278285
375026
-264316
356066
-251037
338062
-238420
320954
-226422
304700
-215043
289256
-204210
274576
-193923
260648
-184168
247397
-174871
234823
-166062
222883
-157697
211531
-149732
200740
-142181
190507
-135000
180761
-128174
171514
-121705
162725
-115546
154391
-109713
146470
-104162
138930
-98878
131759
-93875.5
124970
-89125
118505
-84611.8
112378
-80321.1
106553
-76246.9
101008
-72377.5
95744.6
-68703.8
90742.9
-65215.5
85992.4
-61902.2
81476.8
-58756.6
77185.9
-55768.2
73109.3
-52931
69236.7
-50239.2
65554.9
-47679.3
62056.5
-45251.4
58732.7
-42945.1
55573.2
-40755.9
52570.6
-38676.3
49717.7
-36703.3
47005.6
-34828.2
44428.4
-33049.2
41980.3
-31360.6
39652.6
-29756.3
37439.2
-28233.4
35335.9
-26787.3
33336.9
-25415.2
31437.6
-24113.8
29630.9
-22876.1
27915.2
-21701.8
26281.9
-20586.5
24730.8
-19528.6
23257.7
-18525.2
21855.4
-17570.5
20523.6
-16665.7
19256.8
-15805.2
18054.8
-14991.5
16910.4
-14216.1
15822.3
-13480.3
14788.8
-12782.7
13805.7
-12120.2
12874.3
-11492.8
11986.1
-10894.8
11142.5
-10327.6
10341.9
-9790.94
9580.94
-9280.15
8857.47
-8795.68
8170.14
-8335.94
7517.17
-7899.64
6896.85
-7485.66
6307.56
-7093.12
5747.82
-6720.68
5216.03
-6367.53
4711.1
-6033.18
4231.54
-5716.53
3775.86
-5416.97
3342.95
-5134.24
2931.88
-4868.08
2540.83
-4618.33
2169.12
-4385.36
1814.99
-4171.52
1477.68
-3975.65
1154.62
-3811.52
846.37
-3662.28
546.448
-3610.28
260.416
-3516.96
-3907.02
453216
-284434
430337
-270126
408630
-256578
387995
-243681
368373
-231416
349751
-219798
332054
-208726
315226
-198215
299251
-188235
284086
-178758
269656
-169739
255963
-161178
242961
-153061
230593
-145329
218843
-137982
207683
-131020
197081
-124398
187024
-118118
177453
-112134
168368
-106461
159739
-101084
151522
-95945.1
143746
-91102.3
136338
-86467.6
129313
-82099.4
122625
-77924.5
116275
-73970.5
110242
-70213.9
104510
-66645.7
99064.7
-63258.6
93891.3
-60042.1
88975.1
-56986
84302.7
-54084.2
79865.1
-51330.7
75647.9
-48713.8
71639.2
-46230.5
67831.6
-43871.7
64213.3
-41633.2
60774.1
-39505.9
57505.2
-37486.9
54400.6
-35571.7
51448.6
-33751.4
48643.4
-32022.9
45977.5
-30383.4
43443.8
-28826.8
41034.8
-27347.3
38746.2
-25944.7
36572
-24613.2
34505.1
-23348.2
32539.5
-22148.3
30670.9
-21007.5
28896.3
-19927.2
27208.5
-18898.6
25606
-17926.1
24080
-16999.3
22632.1
-16122.5
21253.4
-15287.1
19945.4
-14497.2
18701
-13747
17517.1
-13032.2
16393.7
-12357
15326.5
-11715.5
14311.2
-11104.9
13344.9
-10526.5
12428.9
-9978.8
11557.8
-9456.47
10729.3
-8962.43
9942.42
-8493.29
9194.91
-8048.16
8484.56
-7625.6
7809.8
-7224.87
7168.83
-6844.69
6559.78
-6484.07
5981.29
-6142.2
5431.9
-5818.14
4909.96
-5511.25
4414.26
-5220.83
3943.41
-4946.11
3496.02
-4686.85
3070.8
-4442.86
2666.61
-4214.14
2282.14
-4000.89
1915.88
-3805.25
1566.71
-3626.48
1231.81
-3476.62
911.962
-3342.43
598.599
-3296.91
299.847
-3218.2
-3607.17
467153
-259645
443597
-246570
421199
-234180
399931
-222413
379736
-211220
360525
-200587
342284
-190485
324955
-180886
308494
-171774
292843
-163106
277986
-154882
263880
-147072
250451
-139632
237714
-132592
225610
-125878
214110
-119519
203198
-113487
192802
-107721
182950
-102282
173584
-97094.6
164674
-92174.3
156235
-87506.1
148194
-83060.6
140579
-78852.4
133314
-74834.5
126428
-71038.9
119883
-67426
113665
-63995.8
107759
-60739.3
102146
-57646.1
96811.8
-54707.4
91744.4
-51918.6
86929.8
-49269.6
82354.7
-46755.5
78008.6
-44367.7
73876.9
-42098.8
69950.8
-39945.7
66220
-37902.4
62675.7
-35961.6
59309
-34120.2
56106.7
-32369.4
53064.4
-30709.1
50173.4
-29131.9
47426.1
-27636.2
44814
-26214.7
42334
-24867.3
39974.5
-23585.2
37732.4
-22371.1
35601.9
-21217.8
33577.3
-20123.6
31652.6
-19082.8
29822
-18096.6
28085.5
-17162.1
26431.4
-16272
24861.3
-15429.1
23367.7
-14629
21949.3
-13868.7
20600.2
-13148.1
19317.6
-12464.4
18101.2
-11815.9
16942.7
-11198.4
15841.8
-10614.6
14795.8
-10058.8
13802.9
-9533.68
12856.9
-9032.77
11959.9
-8559.43
11107
-8109.59
10296.6
-7682.88
9526.6
-7278.14
8795.07
-6894.06
8099.98
-6529.78
7439.7
-6184.42
6812.5
-5856.87
6216.62
-5546.31
5650.8
-5252.32
5113.17
-4973.62
4602.48
-4710.14
4117.35
-4460.98
3656.47
-4225.97
3218.29
-4004.68
2801.78
-3797.63
2405.33