/*--------------------------------*- C++ -*----------------------------------*\
  =========                 |
  \\      /  F ield         | OpenFOAM: The Open Source CFD Toolbox
   \\    /   O peration     | Website:  https://openfoam.org
    \\  /    A nd           | Version:  11
     \\/     M anipulation  |
\*---------------------------------------------------------------------------*/
FoamFile
{
    format      ascii;
    class       surfaceScalarField;
    location    "400";
    object      phi;
}
// * * * * * * * * * * * * * * * * * * * * * * * * * * * * * * * * * * * * * //

dimensions      [0 3 -1 0 0 0 0];

internalField   nonuniform List<scalar> 
62845
(
422016
-1.89559e+06
1.90571e+06
396370
-1.80374e+06
1.82939e+06
379144
-1.71301e+06
1.73023e+06
359560
-1.62671e+06
1.6463e+06
342011
-1.5446e+06
1.56214e+06
324625
-1.46655e+06
1.48394e+06
308469
-1.39216e+06
1.40831e+06
292933
-1.32145e+06
1.33699e+06
278210
-1.2542e+06
1.26892e+06
264182
-1.19031e+06
1.20434e+06
250909
-1.12963e+06
1.1429e+06
238329
-1.07196e+06
1.08454e+06
226291
-1.01712e+06
1.02915e+06
214972
-965145
976465
204103
-915641
926510
193919
-868759
878943
184150
-824092
833861
174883
-781794
791061
166151
-741606
750339
157839
-703380
711691
149885
-667111
675065
142423
-632747
640208
135293
-599985
607114
128533
-568973
575734
122129
-539507
545911
116022
-511486
517593
110251
-484956
490727
104758
-459718
465211
99580.8
-435815
440993
94563
-412999
418017
89894.8
-391467
396135
85419.1
-370966
375442
81176.9
-351543
355785
77161.8
-333051
337066
73317.7
-315534
319378
69686.8
-298892
302523
66213.4
-283121
286595
62941.2
-268125
271397
59815.3
-253892
257018
56840.3
-240394
243369
54011
-227583
230412
51322.7
-215424
218112
48761.1
-203879
206441
46326.8
-192928
195363
44006.1
-182530
184851
41799.9
-172664
174870
39690.4
-163298
165408
37688.3
-154416
156418
35776.4
-145978
147890
33956.2
-137978
139798
32220.1
-130379
132115
30565.4
-123170
124825
28980.5
-116322
117907
27476.4
-109833
111337
26037.3
-103667
105106
24660.9
-97808.7
99185.1
23349.7
-92256.7
93567.9
22092.9
-86981.4
88238.2
20897.2
-81971.6
83167.3
19752.2
-77216.5
78361.5
18656.2
-72700.5
73796.6
17607.3
-68408.4
69457.2
16604.2
-64333.8
65336.9
15645.3
-60461.5
61420.4
14724.9
-56780.8
57701.2
13845.7
-53281.1
54160.2
12998.2
-49951.8
50799.3
12185.3
-46786.5
47599.5
11409.4
-43778.6
44554.5
10661.5
-40905.8
41653.7
9940.32
-38173.4
38894.5
9248.47
-35567.1
36259
8584.59
-33084.1
33747.9
7940.25
-30706.5
31350.9
7321.21
-28435.2
29054.2
6719.97
-26261.9
26863.1
6138.68
-24176.2
24757.5
5574.6
-22172.9
22737
5025.97
-20243.2
20791.9
4490.92
-18380.4
18915.4
3967.73
-16576.2
17099.4
3454.48
-14822.6
15335.9
2949.57
-13111.1
13616.1
2450.72
-11433.5
11932.4
1956.37
-9779.51
10273.9
1466.73
-8144.93
8634.57
979.092
-6514.71
7002.34
513.014
-4920.1
5386.18
-3263.58
3776.59
513229
-1.87237e+06
487499
-1.77801e+06
463523
-1.68903e+06
440473
-1.60366e+06
418453
-1.52258e+06
397388
-1.44548e+06
377417
-1.37219e+06
358399
-1.30243e+06
340307
-1.23611e+06
323160
-1.17316e+06
306845
-1.11331e+06
291340
-1.05646e+06
276679
-1.00246e+06
262689
-951155
249455
-902407
236857
-856161
224930
-812165
213556
-770420
202771
-730821
192559
-693168
182907
-657459
173651
-623491
164929
-591262
156577
-560621
148686
-531615
141243
-504043
134139
-477853
127363
-452942
120907
-429359
114860
-406953
109114
-385721
103612
-365464
98347.1
-346279
93408.9
-328112
88692.8
-310818
84240.7
-294440
79998.6
-278879
75958.7
-264085
72101.5
-250035
68455.1
-236748
64981.5
-224109
61680.1
-212122
58540.6
-200740
55550.5
-189938
52704.1
-179684
49998.5
-169958
47424.8
-160724
44970.2
-151962
42636
-143644
40409.6
-135751
38292.7
-128262
36273.3
-121151
34353.1
-114402
32515.9
-107995
30764
-101915
29099.3
-96144.1
27506.4
-90663.8
25987.4
-85462.5
24536.2
-80520.5
23150.7
-75831
21829.1
-71379
20565.5
-67144.8
19362.2
-63130.5
18205.1
-59304.3
17101
-55676.6
16048.2
-52228.3
15041.2
-48944.8
14074.6
-45820
13147
-42851
12257.2
-40015.9
11407.5
-37323.7
10592.7
-34752.3
9804.13
-32295.5
9047.92
-29950.3
8322.5
-27709.8
7621.95
-25561.3
6945.24
-23499.5
6290.91
-21518.6
5656.78
-19609.1
5040.97
-17764.6
4441.4
-15976.7
3856.01
-14237.2
3282.43
-12537.6
2718.84
-10869.9
2162.9
-9223.57
1614.14
-7596.17
1071.7
-5972.26
546.756
-4395.16
-2716.82
606210
-1.84135e+06
576253
-1.74805e+06
547452
-1.66023e+06
520044
-1.57625e+06
493969
-1.4965e+06
469090
-1.42061e+06
445414
-1.34851e+06
422929
-1.27995e+06
401568
-1.21475e+06
381254
-1.15285e+06
361977
-1.09404e+06
343664
-1.03815e+06
326298
-985090
309757
-934614
294073
-886724
279181
-841268
265060
-798045
251697
-757056
238924
-718048
226827
-681071
215290
-645922
204403
-612603
194051
-580910
184271
-550842
174903
-522247
166035
-495175
157607
-469424
149657
-444993
142080
-421781
134862
-399736
127949
-378807
121478
-358993
115344
-340145
109441
-322210
103910
-305286
98594.4
-289124
93539.9
-273825
88747.6
-259293
84227.9
-245516
79902.7
-232423
75799
-220006
71892.6
-208216
68175.9
-197023
64647.2
-186410
61288.8
-176326
58092.4
-166762
55053.7
-157686
52159.3
-149067
49405.5
-140890
46780.8
-133126
44281.3
-125762
41904.3
-118774
39637.7
-112136
37483.5
-105841
35425.5
-99856.5
33465.8
-94184.4
31601.9
-88799.9
29818.7
-83679.2
28122.4
-78824.2
26507
-74215.6
24957.3
-69829.3
23484.6
-65672
22074.1
-61720
20736.8
-57967.1
19454.3
-54394.1
18225.3
-50999.2
17052
-47771.6
15932.9
-44700.9
14858.8
-41776.9
13835.8
-38992.9
12854.8
-36342.7
11910.7
-33808.2
11009.5
-31394.3
10145.9
-29086.7
9311.95
-26875.8
8511.01
-24760.4
7740.85
-22729.3
6997.59
-20775.3
6279.6
-18891.1
5584.8
-17069.8
4910.23
-15302.1
4253.94
-13581
3613.32
-11896.9
2986.06
-10242.7
2369.81
-8607.33
1763.09
-6989.44
1166.79
-5375.96
584.654
-3813.02
-2132.17
698335
-1.80459e+06
663420
-1.71314e+06
630053
-1.62686e+06
598396
-1.5446e+06
568167
-1.46627e+06
539520
-1.39196e+06
512278
-1.32127e+06
486334
-1.254e+06
461765
-1.19018e+06
438368
-1.12945e+06
416148
-1.07182e+06
395098
-1.0171e+06
374995
-964987
356024
-915642
337961
-868661
320841
-824148
304544
-781749
289056
-741568
274410
-703402
260491
-667152
247235
-632667
234679
-600047
222758
-568989
211411
-539496
200678
-511514
190445
-484943
180753
-459732
171541
-435781
162800
-413040
154471
-391406
146596
-370932
139116
-351513
131973
-333002
125211
-315447
118771
-298846
112697
-283050
106884
-268011
101376
-253784
96135.9
-240276
91163.1
-227450
86429.7
-215272
81929.5
-203716
77657.6
-192751
73586
-182338
69721.3
-172461
66046.5
-163087
62545.1
-154184
59218.7
-145741
56050.1
-137722
53038.5
-130115
50173.8
-122898
47441.4
-116041
44845.2
-109539
42367.3
-103363
40014.6
-97503.8
37766.4
-91936.3
35625.2
-86658.7
33592.6
-81646.6
31649.1
-76880.8
29796.8
-72363.3
28038.2
-68070.7
26353.9
-63987.7
24750.8
-60116.9
23214.3
-56430.5
21755.4
-52935.2
20363.7
-49607.5
19033.6
-46441.5
17759.9
-43427.1
16548.3
-40565.4
15386.1
-37830.7
14275.2
-35231.9
13214.5
-32747.5
12194.7
-30374.5
11218.2
-28110.2
10285.5
-25943.1
9388.64
-23863.5
8526.14
-21866.8
7696.34
-19945.5
6896.54
-18091.3
6123.98
-16297.2
5376.69
-14554.8
4651.18
-12855.5
3945.47
-11191.2
3256.3
-9553.51
2581.14
-7932.17
1918.19
-6326.49
1267.73
-4725.51
626.454
-3171.74
-1505.71
788432
-1.76267e+06
748793
-1.6735e+06
710986
-1.58905e+06
675104
-1.50871e+06
641062
-1.43223e+06
608600
-1.3595e+06
577771
-1.29044e+06
548551
-1.22478e+06
520760
-1.16239e+06
494380
-1.10307e+06
469348
-1.04678e+06
445481
-993230
422912
-942419
401430
-894160
381054
-848285
361674
-804769
343318
-763393
325871
-724121
309267
-686798
293542
-651426
278629
-617754
264416
-585834
250939
-555513
238188
-526744
226048
-499374
214510
-473404
203563
-448785
193147
-425366
183252
-403145
173870
-382024
164990
-362053
156457
-342980
148461
-325006
140844
-307831
133553
-291555
126628
-276125
120112
-261495
113886
-247558
107974
-234364
102350
-221826
97004.9
-209927
91929.3
-198640
87102.2
-187924
82514.8
-177751
78148.6
-168095
73998.8
-158937
70053.4
-150239
66298.1
-141985
62728.5
-134152
59333.8
-126720
56099.7
-119664
53024.5
-112966
50094.4
-106609
47312.2
-100581
44656.8
-94848.3
42134.8
-89414.3
39730
-84253.9
37435.8
-79352.3
35258.4
-74703.4
33178.4
-70283.3
31197.9
-66090.1
29310.6
-62100.4
27510.2
-58316.5
25795
-54715.3
24158.8
-51299
22595.7
-48044.5
21108.3
-44954
19690.3
-42009.2
18328.6
-39203.7
17033.3
-36535.3
15794.9
-33993.5
14607.9
-31560.5
13478.4
-29245
12393.7
-27025.5
11354.3
-24903.6
10357.6
-22866.8
9401.31
-20910.6
8481.59
-19025.8
7596.76
-17206.5
6743.29
-15443.8
5918.17
-13729.7
5118.81
-12056.1
4341.88
-10414.3
3584.24
-8795.88
2842.6
-7190.53
2114.15
-5598.05
1398.42
-4009.78
684.41
-2457.73
-821.302
876328
-1.71598e+06
832069
-1.62924e+06
790039
-1.54702e+06
750056
-1.46873e+06
712123
-1.3943e+06
676086
-1.32346e+06
641848
-1.2562e+06
609325
-1.19226e+06
578386
-1.13145e+06
549056
-1.07374e+06
521180
-1.01891e+06
494774
-966824
469612
-917257
445782
-870329
423121
-825625
401595
-783242
381143
-742940
361759
-704737
343359
-668398
325841
-633908
309234
-601148
293479
-570078
278510
-540544
264264
-512498
250731
-485841
237949
-460622
225708
-436544
214146
-413804
203157
-392156
192779
-371646
182805
-352078
173476
-333650
164484
-316014
155973
-299320
147934
-283516
140263
-268455
132952
-254184
126049
-240656
119466
-227781
113217
-215577
107281
-203991
101634
-192992
96265.3
-182556
91166.4
-172652
86318.4
-163247
81703.6
-154323
77321.7
-145857
73154.2
-137818
69190
-130188
65414.7
-122945
61828.5
-116077
58416.7
-109555
55166.6
-103359
52074.8
-97489.3
49137.6
-91911.1
46335.7
-86612.4
43670.2
-81588.4
41134.8
-76816.9
38717.9
-72286.5
36417.3
-67982.7
34221.9
-63894.8
32138.7
-60017.1
30148.1
-56326
28256.8
-52824
26446
-49488.2
24726.4
-46324.9
23079.8
-43307.5
21512.5
-40441.9
20018.9
-37710
18593
-35109.5
17225.8
-32626.2
15926.8
-30261.5
14683
-28001.2
13492.9
-25835.4
12351.7
-23762.5
11260
-21775.1
10213.3
-19863.8
9208.52
-18021
8242.4
-16240.4
7311.88
-14513.2
6413.76
-12831.6
5544.68
-11187
4701.3
-9570.93
3879.65
-7974.22
3076
-6386.89
2287.11
-4809.15
1506.68
-3229.35
711.021
-1662.06
-110.281
961695
-1.66477e+06
913015
-1.58056e+06
866788
-1.5008e+06
822961
-1.4249e+06
781221
-1.35256e+06
741669
-1.28391e+06
704051
-1.21858e+06
668347
-1.15656e+06
634491
-1.09759e+06
602248
-1.0415e+06
571692
-988351
542610
-937742
515039
-889686
488840
-844130
463997
-800781
440349
-759594
417932
-720523
396606
-683411
376392
-648184
357192
-614708
339009
-582965
321671
-552740
305221
-524093
289594
-496871
274778
-471026
260664
-446508
247288
-423168
234593
-401109
222518
-380081
211054
-360182
200193
-341218
189826
-323284
179997
-306185
170697
-290019
161820
-274639
153408
-260043
145412
-246188
137796
-233039
130577
-220562
123717
-208717
117194
-197469
110995
-186793
105106
-176667
99505.8
-167052
94181.5
-157922
89123.7
-149265
84310
-141043
79736.1
-133244
75384.2
-125836
71250
-118811
67313
-112140
63574.3
-105816
60015.4
-99800.3
56630
-94103.9
53406.2
-88687.4
50341.3
-83547.5
47423.5
-78670.5
44645.4
-74038.8
42000.6
-69641.8
39486.9
-65469
37092.8
-61500.7
34807.9
-57732.2
32634.4
-54152.4
30565.8
-50755.5
28596.2
-47518.5
26711
-44439.7
24924.8
-41521.3
23215.5
-38732.6
21589.3
-36083.8
20032.5
-33552.7
18555.1
-31148.8
17136.3
-28842.8
15785.7
-26650.6
14493.5
-24543.3
13260.2
-22529.1
12079.3
-20594.3
10947.7
-18732.2
9863.45
-16936.7
8821.8
-15198.7
7820.44
-13511.9
6855.54
-11866.7
5923.59
-10255.1
5020.54
-8667.88
4142.71
-7096.39
3284.98
-5529.16
2443.78
-3967.95
1606.54
-2392.11
762.738
-818.257
652.457
1.04439e+06
-1.60917e+06
991539
-1.52771e+06
941329
-1.45059e+06
893595
-1.37717e+06
848336
-1.3073e+06
805331
-1.2409e+06
764473
-1.17772e+06
725675
-1.11776e+06
688824
-1.06074e+06
653834
-1.00651e+06
620593
-955111
589065
-906214
559132
-859753
530632
-815630
503586
-773735
477985
-733994
453604
-696141
430483
-660291
408493
-626194
387638
-593853
367787
-563115
348986
-533939
331122
-506229
314121
-479871
298035
-454939
282697
-431170
268198
-408669
254377
-387288
241275
-366979
228834
-347741
216994
-329378
205748
-312038
195088
-295525
184957
-279888
175298
-264980
166153
-250899
157463
-237498
149206
-224783
141357
-212713
133896
-201256
126812
-190384
120077
-180058
113679
-170269
107592
-160964
101814
-152144
96318.2
-143769
91090.4
-135816
86122.1
-128276
81404.8
-121119
76912.3
-114318
72645.7
-107874
68576.2
-101746
64717.7
-95941.7
61042.5
-90428.6
57548.5
-85193.4
54227.5
-80226.5
51062.9
-75505.9
48053.9
-71029.7
45188.4
-66776.4
42463.6
-62744.2
39869.1
-58906.2
37397.5
-55260.6
35047.3
-51802.3
32807.9
-48516
30672.7
-45383.4
28644.4
-42411.4
26708.2
-39585.1
24866.7
-36891
23105.8
-34322.9
21435.6
-31882.4
19834.6
-29547.9
18312.7
-27320.8
16857
-25194.9
15470.2
-23156.5
14144
-21202.9
12876.1
-19326.4
11663.7
-17519.7
10501.7
-15774.7
9388.61
-14085.6
8318.96
-12442.2
7290.48
-10838.2
6298.61
-9263.18
5339.13
-7708.4
4407.66
-6164.92
3499.27
-4620.76
2608.67
-3077.35
1719.66
-1503.1
867.053
34.3511
1519.51
1.12411e+06
-1.54926e+06
1.06725e+06
-1.47084e+06
1.01321e+06
-1.39654e+06
961893
-1.32586e+06
913174
-1.25858e+06
866816
-1.19455e+06
822903
-1.13381e+06
781104
-1.07596e+06
741426
-1.02106e+06
703831
-968913
668005
-919284
634055
-872264
601797
-827495
571166
-784999
542087
-744656
514449
-706356
488228
-669921
463308
-635371
439680
-602565
417169
-571341
395866
-541812
375561
-513634
356332
-487000
338080
-461619
320685
-437544
304232
-414717
288568
-393005
273731
-372451
259561
-352809
246150
-334330
233438
-316666
221319
-299919
209785
-283990
198878
-268981
188540
-254642
178659
-241017
169295
-228134
160398
-215886
151948
-204263
143915
-193223
136284
-182753
129034
-172809
122137
-163372
115589
-154417
109361
-145916
103440
-137848
97819
-130195
92470
-122927
87385
-116034
82553.6
-109487
77957
-103277
73589.7
-97379
69430.9
-91783
65480.8
-86478.5
61720.5
-81433.1
58140.1
-76646.1
54741
-72106.8
51505.6
-67794.3
48427.3
-63698.1
45496.3
-59813.1
42709.2
-56119.1
40055.6
-52607
37528.5
-49275.2
35121.6
-46109
32837.1
-43098.9
30656.1
-40230.4
28577.1
-37506.1
26597.9
-34911.8
24716.3
-32441.3
22918.8
-30085
21207.4
-27836.5
19576.3
-25689.7
18016.2
-23634.8
16529.4
-21669.7
15110.2
-19783.6
13753.6
-17969.9
12456.6
-16222.7
11215.2
-14533.4
10025.2
-12895.5
8883.59
-11300.7
7785.5
-9740.1
6727.1
-8204.79
5703.77
-6685.07
4710.57
-5171.72
3741.84
-3652.04
2790.42
-2125.93
1841.61
-554.293
936.066
939.891
2455.58
1.2009e+06
-1.48533e+06
1.14017e+06
-1.41011e+06
1.08245e+06
-1.33883e+06
1.02759e+06
-1.271e+06
975512
-1.2065e+06
926047
-1.14508e+06
879056
-1.08682e+06
834469
-1.03137e+06
792072
-978666
751819
-928661
713659
-881124
677305
-835911
642844
-793034
610150
-752305
579062
-713568
549497
-676791
521506
-641930
494861
-608726
469597
-577302
445605
-547349
422765
-518972
401114
-491983
380549
-466435
360995
-442065
342495
-419044
324845
-397067
308127
-376288
292184
-356507
277154
-337779
262782
-319957
249158
-303042
236223
-286985
223971
-271738
212246
-257256
201140
-243536
190645
-230522
180633
-218121
171126
-206379
162086
-195223
153500
-184637
145341
-174594
137588
-165056
130222
-156006
123223
-147418
116569
-139262
110249
-131528
104236
-124182
98521.9
-117212
93088.4
-110600
87926.9
-104325
83015.8
-98366.1
78345.5
-92708.7
73911.4
-87348.8
69688.9
-82255.9
65672.4
-77416.6
61857.8
-72831.5
58229.2
-68478.3
54770.2
-64335.3
51489.5
-60417.4
48358.4
-56682.1
45382.5
-53143.2
42558.2
-49782.7
39865.9
-46582.8
37298.9
-43542.1
34859.2
-40659.2
32537.3
-37908.4
30326.2
-35295
28220.2
-32805.8
26213.2
-30434.4
24299.4
-28171.1
22476.9
-26014.1
20740
-23952.8
19086.2
-21981.1
17506.8
-20090.2
15999.1
-18276
14559.8
-16530.5
13183.6
-14846.5
11867.6
-13217.5
10607.3
-11635.2
9398.2
-10091.5
8236.41
-8578.3
7117.44
-7085.82
6036.22
-5603.85
4987.28
-4122.78
3963.89
-2628.64
2959.36
-1121.4
1960.04
445.033
994.848
1905.08
3450.42
1.27437e+06
-1.41754e+06
1.20998e+06
-1.34571e+06
1.14872e+06
-1.27757e+06
1.09056e+06
-1.21283e+06
1.03527e+06
-1.15121e+06
982771
-1.09258e+06
932895
-1.03694e+06
885511
-983987
840604
-933759
797845
-885901
757260
-840540
718777
-797427
682181
-756439
647391
-717515
614406
-680582
583100
-645485
553347
-612177
525088
-580468
498213
-550427
472749
-521884
448541
-494765
425568
-469009
403660
-444527
382975
-421380
363238
-399307
344549
-378378
326784
-358522
309938
-339661
293863
-321704
278637
-304732
264158
-288562
250416
-273243
237405
-258727
225017
-244868
213242
-231761
202034
-219314
191405
-207492
181305
-196280
171709
-185627
162597
-175525
153931
-165928
145704
-156828
137877
-148179
130442
-139983
123380
-132200
116668
-124815
110287
-117801
104221
-111147
98457.9
-104837
92974.8
-98842.2
87766
-93157.3
82814.5
-87757.2
78105.9
-82640.2
73625.2
-77775.2
69368.2
-73159.7
65319
-68782.3
61465.4
-64624.7
57811.7
-60681.5
54323.2
-56929
51012.2
-53371.1
47858.6
-49989.6
44858
-46782.1
42007.7
-43732.6
39298
-40832.3
36707.5
-38068.8
34252.2
-35453.1
31913.3
-32956.1
29684.6
-30577.1
27560.4
-28310.1
25542.5
-26153.1
23620.7
-24092.3
21789.8
-22121.8
20040.3
-20231.6
18375.2
-18425.1
16786.6
-16687.4
15271.1
-15015
13823.7
-13399.2
12440.7
-11834.5
11117.3
-10311.8
9849.73
-8823.94
8633.49
-7362.06
7463.2
-5915.54
6334.15
-4474.79
5240.61
-3029.25
4174.14
-1562.17
3127
-74.2608
2090.03
1482
1078.82
2916.3
4529.24
1.34446e+06
-1.34598e+06
1.27649e+06
-1.27774e+06
1.21194e+06
-1.21302e+06
1.15056e+06
-1.15145e+06
1.09223e+06
-1.09289e+06
1.0369e+06
-1.03725e+06
984263
-984308
934316
-934040
886825
-886268
841775
-840851
798946
-797711
758314
-756795
719704
-717828
683054
-680866
648233
-645761
615137
-612389
583698
-580738
553901
-550670
525568
-522094
498656
-494972
473075
-469184
448838
-444773
425821
-421510
403914
-399473
383100
-378493
363371
-358648
344625
-339776
326746
-321782
309877
-304836
293805
-288661
278528
-273285
264036
-258751
250224
-244914
237151
-231795
224719
-219329
212905
-207500
201690
-196277
191027
-185617
180896
-175496
171274
-165903
162128
-156782
153436
-148136
145188
-139932
137341
-132136
129880
-124739
122793
-117728
116059
-111068
109659
-104747
103577
-98754.5
97795.5
-93061.2
92293.1
-87654.9
87069.8
-82533.9
82101.1
-77671.5
77377.1
-73051.3
72889.6
-68672.2
68621.8
-64514.5
64561
-60563.8
60697
-56817.6
57026.5
-53258.5
53538
-49882.5
50220.2
-46671.9
47059.8
-43621.6
44054.2
-40727
41192.1
-37970.2
38478.8
-35355.5
35888.7
-32863
33423.4
-30490.8
31082.3
-28236
28854.5
-26082.4
26730.3
-24028.9
24707.7
-22069.8
22782.5
-20196.5
20950.9
-18400
19204.2
-16678.4
17539.7
-15023
15951.8
-13427
14437.2
-11884.6
12991.1
-10388.3
11609.1
-8929.86
10286.8
-7501.66
9019.2
-6094.44
7802.4
-4698.74
6630.05
-3302.44
5496.23
-1895.43
4389.47
-455.417
3308.17
1007.04
2235.92
2554.25
1183.35
3968.87
5712.59
1.411e+06
-1.27102e+06
1.33973e+06
-1.20647e+06
1.27192e+06
-1.1452e+06
1.20756e+06
-1.0871e+06
1.14639e+06
-1.03172e+06
1.08828e+06
-979140
1.03307e+06
-929098
980684
-881652
930841
-836425
883578
-793588
838669
-752801
795944
-714071
755446
-677330
716991
-642411
680424
-609194
645758
-577722
612795
-547775
581468
-519343
551702
-492328
523489
-466758
496674
-442369
471175
-419274
447000
-397334
424022
-376495
402190
-356661
381445
-337903
361770
-320102
343106
-303118
325303
-287032
308392
-271750
292426
-257319
277190
-243516
262709
-230434
248962
-218048
235907
-206273
223507
-195101
211725
-184494
200526
-174418
189899
-164868
179786
-155790
170190
-147185
161066
-139012
152394
-131259
144156
-123898
136332
-116916
128890
-110286
121818
-103996
115100
-98028.3
108709
-92363.9
102635
-86986.7
96866.5
-81886.5
91383.3
-77050.7
86166.8
-72455.1
81207.8
-68092.2
76493.8
-63958.2
72013.1
-60033.8
67750.9
-56301.6
63701.4
-52768.1
59847.4
-49404.5
56180
-46215.1
52693
-43184.9
49381.7
-40310.4
46227.3
-37572.6
43227.2
-34970.1
40373
-32501.3
37660.2
-30150.2
35079.2
-27909.8
32620.9
-25777.8
30281.2
-23742.6
28053.5
-21801.3
25932.1
-19948.4
23913.5
-18177.9
21990.3
-16476.8
20157.4
-14845.5
18410.5
-13276.1
16744.7
-11761.3
15155.4
-10295.3
13637.1
-8870.02
12186.1
-7478.88
10797.4
-6112.9
9465.78
-4762.84
8185.9
-3418.85
6951.73
-2068.27
5756
-699.699
4585.91
714.672
3441.26
2151.69
2295.21
3700.3
1168.65
5095.43
6881.24
1.47375e+06
-1.19265e+06
1.39932e+06
-1.13203e+06
1.32859e+06
-1.07448e+06
1.26133e+06
-1.01984e+06
1.19744e+06
-967832
1.13676e+06
-918456
1.07915e+06
-871489
1.02435e+06
-826850
972381
-784460
922932
-744139
876020
-705889
831497
-669548
789166
-634999
748931
-602175
710767
-571031
674462
-541418
640036
-513349
607342
-486649
576305
-461291
546764
-437217
518760
-414366
492134
-392648
466852
-372052
442828
-352472
420046
-333879
398379
-316237
377735
-299457
358213
-283596
339679
-268498
322041
-254112
305239
-240517
289344
-227620
274244
-215334
259885
-203688
246244
-192633
233282
-182139
220967
-172180
209271
-162722
198153
-153750
187593
-145230
177556
-137149
168025
-129481
158965
-122199
150356
-115289
142170
-108730
134401
-102516
127013
-96607.6
119989
-91004.9
113312
-85686.7
106972
-80646.7
100944
-75858.8
95210.4
-71316.8
89762.4
-67007
84588.5
-62918.3
79667.7
-59037.4
74981.7
-55347.8
70535
-51854.9
66299.9
-48533
62279.7
-45384.2
58456.9
-42392.3
54819.3
-39547.3
51356.2
-36847.3
48067.4
-34283.7
44942.6
-31845.3
41964.6
-29523.4
39133.5
-27319.1
36440.4
-25216.7
33877.4
-23214.7
31441.7
-21306.8
29122.9
-19482.6
26916.8
-17742.3
24813.8
-16074.9
22812.5
-14475.6
20907.3
-12940.2
19092
-11460.8
17361.8
-10031.1
15711.7
-8645.22
14137.8
-7296.15
12634.1
-5975.17
11196.3
-4675.06
9819.35
-3385.89
8497.53
-2097.03
7223.64
-794.385
5989.83
534.104
4789.59
1914.91
3615.46
3325.82
2434.12
4881.64
1267.84
6261.7
8149.08
1.53265e+06
-1.11128e+06
1.4552e+06
-1.05458e+06
1.38166e+06
-1.00094e+06
1.31174e+06
-949919
1.24533e+06
-901420
1.18224e+06
-855364
1.12231e+06
-811559
1.06537e+06
-769909
1.01125e+06
-730342
959879
-692771
911099
-657109
864725
-623174
820696
-590970
778902
-560381
739166
-531295
701472
-503724
665615
-477492
631571
-452605
599280
-429000
568581
-406518
539398
-385183
511730
-364980
485425
-345747
460458
-327504
436719
-310140
414156
-293674
392810
-278112
372465
-263250
353118
-249152
334770
-235764
317369
-223116
300792
-211044
285064
-199606
270118
-188742
255923
-178438
242439
-168655
229624
-159365
217449
-150548
205885
-142186
194897
-134242
184460
-126712
174535
-119556
165110
-112774
156149
-106328
147641
-100222
139551
-94426
131861
-88918.1
124559
-83702.5
117621
-78749.1
111021
-74046.7
104751
-69588.3
98787.3
-65353.5
93121.8
-61341.5
87736.6
-57533.1
82614.1
-53915
77750.8
-50484.5
73124.4
-47228.6
68725.8
-44134.4
64545.4
-41203.8
60570.7
-38417.6
56789.5
-35766.1
53195.2
-33253
49779.4
-30867.9
46530.4
-28596.3
43440.6
-26433.6
40500.1
-24378.6
37704.4
-22420.9
35048.9
-20559.2
32518.8
-18776.8
30112.4
-17076.2
27822.9
-15452.7
25644.8
-13896.7
23572.7
-12403.5
21599.8
-10967.3
19721.3
-9582.25
17932.5
-8242.39
16228
-6940.66
14602.7
-5670.89
13052.1
-4424.57
11571.2
-3194.13
10154.4
-1969.13
8796.04
-738.633
7488.31
513.344
6227.22
1795.2
5001.43
3140.71
3805.24
4522.01
2598.37
6088.52
1402.85
7457.22
9551.93
1.58741e+06
-1.02687e+06
1.50731e+06
-974477
1.43112e+06
-924748
1.35877e+06
-877563
1.28998e+06
-832633
1.22461e+06
-789999
1.16253e+06
-749480
1.10358e+06
-710958
1.04754e+06
-674301
994375
-639604
943783
-606517
895793
-575184
850186
-545363
806894
-517090
765749
-490150
726699
-464673
689558
-440351
654326
-417373
620841
-395515
589035
-374712
558850
-354997
530166
-336296
502881
-318463
477030
-301653
452459
-285568
429108
-270324
406912
-255916
385810
-242148
365801
-229143
346836
-216799
328759
-205039
311597
-193882
295297
-183306
279815
-173260
265104
-163727
251126
-154676
237850
-146088
225235
-137934
213248
-130198
201864
-122858
191044
-115892
180764
-109276
170991
-103000
161715
-97052.7
152895
-91401.8
144505
-86036.4
136545
-80957.9
128975
-76132.6
121779
-71552.8
114943
-67211
108441
-63086.1
102270
-59182.4
96396.9
-55468.4
90817.1
-51953.3
85512.9
-48610.8
80471.3
-45442.9
75677
-42434.3
71123
-39580.3
66791.4
-36872.3
62668.7
-34294.8
58755.2
-31852.6
55037.1
-29535
51494.1
-27324.9
48126.2
-25228.3
44930
-23237.5
41888.1
-21336.6
38991.6
-19524.5
36235.9
-17803.6
33620.7
-16161.6
31131.8
-14587.3
28763.1
-13084
26509.4
-11643.1
24364.3
-10258.4
22323.5
-8926.43
20380.2
-7639.03
18529.5
-6391.69
16766.6
-5177.74
15085.9
-3990.17
13482.6
-2821.31
11951.8
-1663.3
10486.4
-503.743
9081.03
666.748
7729.74
1864.64
6426.13
3098.8
5156.13
4410.7
3915.78
5762.36
2659.8
7344.5
1413.93
8703.08
10965.9
1.63814e+06
-939933
1.55542e+06
-891754
1.47688e+06
-846208
1.40216e+06
-802842
1.33125e+06
-761723
1.26382e+06
-722576
1.19973e+06
-685387
1.1389e+06
-650124
1.08113e+06
-616538
1.02621e+06
-584679
974084
-554392
924533
-525633
877468
-498298
832740
-472362
790306
-447715
750003
-424370
711705
-402054
675353
-381021
640785
-360947
607985
-341912
576798
-323811
547166
-306664
519063
-290360
492344
-274934
466943
-260167
442899
-246280
419961
-232978
398220
-220407
377578
-208501
357923
-197144
339281
-186397
321567
-176168
304746
-166485
288759
-157272
273572
-148540
259145
-140249
245437
-132380
232417
-124914
220042
-117823
208287
-111103
197113
-104719
186502
-98664.1
176419
-92918.1
166833
-87466.3
157723
-82291.4
149073
-77387.1
140849
-72733.2
133030
-68314
125603
-64125.2
118544
-60152.9
111842
-56383.3
105461
-52801.4
99405
-49412.8
93641.5
-46189.8
88166.6
-43135.8
82964.7
-40241
78018.2
-37487.8
73313.7
-34875.9
68841.3
-32399.9
64594.9
-30048.4
60558.1
-27815.8
56713.9
-25690.8
53064.9
-23675.9
49590.2
-21753.6
46289.7
-19937
43148.6
-18195.5
40166.4
-16542.3
37327.2
-14964.4
34625
-13459.4
32057.9
-12020.2
29615.3
-10641.4
27291.6
-9319.39
25081.8
-8048.58
22977.8
-6822.48
20975.7
-5636.85
19069.3
-4485.27
17253.4
-3361.92
15522.8
-2259.58
13872.6
-1171.07
12295.5
-86.215
10787.8
1003.97
9343.07
2111.49
7954.34
3253.36
6613.72
4439.43
5305.91
5718.51
4027.56
7040.71
2729.09
8642.97
1438.41
9993.77
12404.3
1.68443e+06
-850420
1.59947e+06
-806790
1.51862e+06
-765357
1.44186e+06
-726090
1.3689e+06
-688759
1.29961e+06
-653282
1.23377e+06
-619546
1.17121e+06
-587565
1.11178e+06
-557107
1.05529e+06
-528188
1.00169e+06
-500797
950721
-474663
902346
-449923
856419
-426435
812764
-404060
771269
-382876
731926
-362711
694464
-343559
658933
-325415
625155
-308134
593137
-291793
562702
-276229
533747
-261405
506214
-247401
480142
-234096
455331
-221469
431804
-209450
409447
-198050
388180
-187233
367995
-176959
348803
-167206
330588
-157952
313274
-149172
296836
-140834
281206
-132910
266367
-125410
252263
-118275
238863
-111514
226135
-105095
214039
-99006.5
202545
-93225
191627
-87746.7
181250
-82540.4
171391
-77607.4
162027
-72927.4
153125
-68485.4
144664
-64272.1
136624
-60274.5
128984
-56484.5
121725
-52894.2
114823
-49481.2
108268
-46246.4
102031
-43176.3
96107.2
-40265.7
90481
-37509.7
85125.6
-34885.6
80040.6
-32402.8
75204.9
-30040.1
70612.9
-27807.9
66244.2
-25679.8
62087.4
-23659
58138.9
-21742.3
54385.2
-19922.2
50824.6
-18193
47428.9
-16541.3
44203.7
-14970.3
41139.7
-13478.4
38226.3
-12050.9
35455.2
-10688.2
32820.6
-9385.61
30316.7
-8137.45
27934.5
-6937.27
25669
-5782.99
23514.1
-4667.62
21463.9
-3586.69
19513.3
-2534.67
17656.9
-1505.46
15888.5
-491.172
14203
514.403
12596.2
1520.57
11061.8
2538.37
9594.7
3578.6
8186.26
4661.8
6830.54
5795.15
5510.68
7038.37
4223.93
8327.46
2915.18
9951.72
1615.74
11293.2
14020
1.72642e+06
-758770
1.63925e+06
-719616
1.55651e+06
-682622
1.47785e+06
-647425
1.40304e+06
-613955
1.33205e+06
-582288
1.26457e+06
-552071
1.20042e+06
-523414
1.13952e+06
-496203
1.08171e+06
-470383
1.02671e+06
-445793
974521
-422474
924971
-400373
877848
-379312
833091
-359303
790567
-340352
750197
-322341
711888
-305250
675446
-288973
640859
-273547
608003
-258937
576732
-244957
547145
-231819
518957
-219213
492226
-207364
466781
-196024
442635
-185304
419695
-175110
397897
-165435
377198
-156260
357539
-147546
338860
-139274
321107
-131419
304240
-123968
288225
-116896
273005
-110190
258547
-103818
244811
-97778.8
231757
-92041
219353
-86601.9
207573
-81444.8
196374
-76548.3
185735
-71900.8
175625
-67497.6
166018
-63320.7
156887
-59353.9
148211
-55596.7
139971
-52034.4
132140
-48653.1
124693
-45447.5
117615
-42403.5
110893
-39524.3
104500
-36783.4
98431.8
-34197.1
92654
-31731.9
87171.5
-29403
81952.1
-27183.4
76997.7
-25085.7
72286.1
-23096.4
67804
-21197.6
63549.6
-19404.6
59507.7
-17700.4
55660.1
-16074.6
52000.6
-14533.5
48528.8
-13069.5
45226.1
-11667.5
42083.5
-10335.9
39098.3
-9065.73
36259.9
-7849.78
33561.4
-6687.18
30994.7
-5570.67
28554.8
-4497.38
26234.6
-3462.8
24028.5
-2461.52
21929.8
-1488.03
19933.4
-538.19
18033.1
394.829
16224
1317.91
14500.2
2238.21
12856.8
3163.96
11288.3
4106.8
9788.56
5078.39
8350.38
6099.98
6966.29
7179.23
5619.22
8385.44
4306.94
9639.74
2965.3
11293.4
1636.96
12621.6
15657
1.76379e+06
-665152
1.67482e+06
-630644
1.59022e+06
-598026
1.50987e+06
-567076
1.43357e+06
-537651
1.36098e+06
-509697
1.29205e+06
-483147
1.22658e+06
-457939
1.16438e+06
-434009
1.10525e+06
-411254
1.04913e+06
-389669
995834
-369179
945119
-349658
897013
-331205
851302
-313592
807884
-296934
766675
-281132
727444
-266019
690252
-251781
654902
-238197
621291
-225326
589446
-213112
559103
-201476
530380
-190489
502987
-179971
477024
-170062
452343
-160623
428901
-151668
406638
-143172
385485
-135107
365385
-127446
346285
-120174
328152
-113286
310923
-106738
294552
-100525
278991
-94628.5
264210
-89037
250165
-83733.3
236825
-78701.3
224153
-73930.1
212104
-69396
200658
-65102.4
189783
-61025.7
179450
-57164.4
169628
-53498.5
160303
-50028.5
151433
-46726.6
143004
-43606.3
134996
-40645.1
127388
-37838.8
120154
-35170
113277
-32646.6
106752
-30258.7
100538
-27983.4
94638.9
-25832.5
89028.7
-23792.8
83700.1
-21854.9
78632.9
-20018.5
73814.8
-18278.2
69242.6
-16625.5
64890
-15051.9
60753.8
-13564.2
56821.7
-12142.5
53087.3
-10799.1
49529.7
-9511.95