/*--------------------------------*- C++ -*----------------------------------*\
  =========                 |
  \\      /  F ield         | OpenFOAM: The Open Source CFD Toolbox
   \\    /   O peration     | Website:  https://openfoam.org
    \\  /    A nd           | Version:  11
     \\/     M anipulation  |
\*---------------------------------------------------------------------------*/
FoamFile
{
    format      ascii;
    class       volVectorField;
    location    "400";
    object      U;
}
// * * * * * * * * * * * * * * * * * * * * * * * * * * * * * * * * * * * * * //

dimensions      [0 1 -1 0 0 0 0];

internalField   nonuniform List<vector> 
31595
(
(25.5177 3.30873 -9.05337e-19)
(25.6775 3.40421 3.32949e-19)
(25.6201 3.43179 1.3702e-18)
(25.6346 3.42413 1.53645e-18)
(25.6134 3.42686 0)
(25.6059 3.43168 0)
(25.5833 3.43314 0)
(25.5648 3.43509 1.17163e-18)
(25.541 3.4371 3.55572e-20)
(25.517 3.43929 0)
(25.4905 3.44158 0)
(25.463 3.44417 8.6421e-19)
(25.4338 3.44704 -9.10619e-19)
(25.4034 3.45024 1.04853e-18)
(25.3716 3.45378 -1.10493e-18)
(25.3385 3.45772 1.23395e-18)
(25.3041 3.46206 0)
(25.2684 3.46683 -1.54056e-18)
(25.2313 3.47206 3.26913e-18)
(25.1929 3.47777 -9.32853e-19)
(25.153 3.48399 9.83256e-19)
(25.1118 3.49073 0)
(25.069 3.49802 0)
(25.0248 3.50588 1.36577e-18)
(24.979 3.51433 -6.88933e-19)
(24.9316 3.5234 3.38914e-20)
(24.8825 3.53311 -1.73781e-18)
(24.8317 3.54347 -9.97358e-19)
(24.7791 3.55451 2.14748e-18)
(24.7246 3.56622 -2.32477e-18)
(24.6683 3.57865 0)
(24.61 3.59178 -6.94355e-19)
(24.5496 3.60563 7.97773e-19)
(24.4872 3.6202 -8.41545e-19)
(24.4225 3.6355 9.48855e-19)
(24.3556 3.65153 -1.05579e-18)
(24.2862 3.66827 5.59708e-19)
(24.2144 3.68572 1.86346e-18)
(24.14 3.70387 0)
(24.063 3.7227 -7.65731e-19)
(23.9831 3.74219 1.63751e-18)
(23.9002 3.76232 0)
(23.8143 3.78305 0)
(23.7251 3.80437 -5.62169e-19)
(23.6325 3.82622 2.35685e-18)
(23.5364 3.84858 0)
(23.4364 3.8714 -7.33396e-19)
(23.3324 3.89464 1.56921e-18)
(23.2242 3.91825 -8.83784e-19)
(23.1115 3.94217 9.59858e-19)
(22.994 3.96636 -2.60404e-18)
(22.8715 3.99074 5.64264e-19)
(22.7436 4.01526 -1.89682e-18)
(22.6101 4.03985 2.76634e-18)
(22.4705 4.06442 -7.3752e-19)
(22.3244 4.08889 -1.66734e-18)
(22.1714 4.11316 -9.42399e-19)
(22.011 4.13714 -5.39738e-19)
(21.8428 4.16071 -1.14972e-18)
(21.6661 4.18374 1.83629e-18)
(21.4804 4.20608 -1.11045e-20)
(21.2849 4.22758 7.51686e-19)
(21.079 4.24803 4.03383e-20)
(20.8617 4.26724 -4.25476e-19)
(20.6323 4.28494 5.35795e-19)
(20.3896 4.30086 -2.25832e-18)
(20.1326 4.31465 -6.34827e-19)
(19.8601 4.32592 6.99648e-19)
(19.5705 4.33421 2.34131e-18)
(19.2624 4.33896 5.335e-20)
(18.9339 4.3395 -1.40145e-18)
(18.583 4.33503 2.3088e-20)
(18.2074 4.32459 1.22469e-18)
(17.8043 4.30696 0)
(17.3708 4.28068 1.53796e-18)
(16.9032 4.2439 0)
(16.3974 4.19431 9.90689e-19)
(15.8485 4.12899 0)
(15.2507 4.04414 0)
(14.5971 3.93491 0)
(13.8797 3.79484 1.74107e-18)
(13.0887 3.6154 1.01927e-18)
(12.2122 3.38508 -1.83067e-18)
(11.2368 3.0877 -1.497e-18)
(10.1444 2.70328 8.78025e-19)
(8.91898 2.19325 5.78597e-19)
(7.53461 1.54316 7.73612e-19)
(5.98854 0.584344 -1.05029e-18)
(4.25397 -0.315041 1.61392e-18)
(25.6354 3.35125 2.84604e-18)
(25.6453 3.4058 1.51464e-18)
(25.6473 3.4497 1.29015e-18)
(25.6344 3.44256 -4.42366e-18)
(25.6207 3.4446 0)
(25.6061 3.45022 0)
(25.5871 3.4532 1.97522e-18)
(25.5662 3.45567 0)
(25.5434 3.45861 0)
(25.519 3.46167 -2.64687e-18)
(25.4929 3.46492 -4.41911e-18)
(25.4655 3.46846 3.18962e-18)
(25.4366 3.47235 1.7685e-18)
(25.4065 3.4766 3.95452e-18)
(25.3751 3.48126 -2.1155e-18)
(25.3423 3.48634 -1.19742e-18)
(25.3083 3.49188 1.33878e-18)
(25.2731 3.4979 -4.26848e-18)
(25.2364 3.50443 2.41511e-20)
(25.1985 3.51148 -3.43824e-18)
(25.1592 3.51908 0)
(25.1185 3.52725 0)
(25.0763 3.53602 0)
(25.0326 3.54541 0)
(24.9874 3.55544 2.78249e-18)
(24.9406 3.56614 0)
(24.8921 3.57751 3.39121e-18)
(24.842 3.58959 0)
(24.7901 3.60239 2.03062e-18)
(24.7363 3.61593 1.13525e-18)
(24.6806 3.63021 -1.26336e-18)
(24.623 3.64527 1.3149e-18)
(24.5634 3.66109 1.4639e-18)
(24.5016 3.6777 -1.67391e-18)
(24.4376 3.69509 1.76595e-18)
(24.3713 3.71327 -1.00896e-18)
(24.3026 3.73223 2.15851e-18)
(24.2315 3.75198 -1.20097e-18)
(24.1577 3.77249 0)
(24.0813 3.79377 0)
(24.0019 3.8158 -3.16985e-18)
(23.9196 3.83856 -1.68619e-20)
(23.8342 3.86202 0)
(23.7455 3.88617 2.06638e-18)
(23.6534 3.91098 -2.25432e-18)
(23.5576 3.93642 -1.23309e-18)
(23.4579 3.96245 0)
(23.3542 3.98904 0)
(23.2462 4.01615 0)
(23.1337 4.04374 9.20333e-19)
(23.0163 4.07175 1.01125e-18)
(22.8938 4.10015 1.11147e-18)
(22.7659 4.12887 1.22203e-18)
(22.6322 4.15786 -1.34406e-18)
(22.4924 4.18704 7.09628e-19)
(22.346 4.21635 -3.14199e-20)
(22.1925 4.24571 1.78472e-18)
(22.0317 4.27503 -9.7913e-19)
(21.8627 4.3042 1.07633e-18)
(21.6853 4.33311 -1.16999e-18)
(21.4985 4.36165 -6.21913e-19)
(21.3019 4.38965 -2.16807e-18)
(21.0946 4.41695 8.11434e-19)
(20.8758 4.44336 -9.13585e-19)
(20.6445 4.46865 -2.31728e-20)
(20.3997 4.49256 3.32454e-18)
(20.1403 4.51478 -1.22144e-18)
(19.8649 4.53493 2.72561e-18)
(19.5721 4.55259 -2.23373e-18)
(19.2602 4.56722 8.56891e-19)
(18.9273 4.5782 -9.68924e-19)
(18.5714 4.58476 1.04053e-18)
(18.1899 4.58594 -1.80668e-18)
(17.78 4.58058 1.31104e-18)
(17.3386 4.56724 -7.78332e-19)
(16.8617 4.5441 0)
(16.3451 4.50884 1.95869e-18)
(15.7833 4.45852 2.24168e-18)
(15.1704 4.38931 2.57987e-18)
(14.4988 4.29622 7.66699e-19)
(13.7599 4.17257 -3.49381e-18)
(12.943 4.00952 -1.05174e-18)
(12.0353 3.7948 -2.45686e-18)
(11.0221 3.51141 3.70293e-18)
(9.88376 3.13686 1.84576e-18)
(8.60333 2.6316 -4.10698e-18)
(7.15095 1.96929 -2.35535e-18)
(5.53635 0.995089 -5.59602e-18)
(3.64391 0.0053698 9.34046e-18)
(25.6601 3.39862 -2.33945e-18)
(25.654 3.42559 -2.45164e-18)
(25.6565 3.46648 2.57424e-18)
(25.6414 3.46293 1.4379e-19)
(25.6256 3.46351 -3.22275e-18)
(25.6097 3.46917 3.39438e-18)
(25.5905 3.47302 3.82297e-18)
(25.5693 3.47616 -2.06119e-18)
(25.5465 3.47978 0)
(25.5221 3.48368 2.57715e-18)
(25.4963 3.48781 2.83937e-18)
(25.4691 3.49229 -1.56371e-18)
(25.4406 3.49716 -1.72198e-18)
(25.4108 3.50245 -1.95546e-18)
(25.3798 3.50819 2.02855e-18)
(25.3475 3.5144 0)
(25.314 3.52112 2.56549e-18)
(25.2792 3.52837 2.81365e-18)
(25.2431 3.53616 0)
(25.2057 3.54454 -1.62478e-18)
(25.1669 3.5535 0)
(25.1268 3.56309 -2.00131e-18)
(25.0852 3.57333 0)
(25.0422 3.58423 4.91707e-18)
(24.9977 3.59582 -5.25793e-18)
(24.9515 3.60812 -5.81898e-18)
(24.9037 3.62116 -3.29642e-18)
(24.8543 3.63495 1.74902e-18)
(24.8031 3.64951 -1.97834e-18)
(24.75 3.66486 0)
(24.6951 3.68102 0)
(24.6382 3.69799 -1.32801e-18)
(24.5793 3.7158 2.77012e-18)
(24.5182 3.73445 1.53879e-18)
(24.455 3.75395 0)
(24.3894 3.77431 0)
(24.3215 3.79552 -2.12115e-18)
(24.251 3.8176 2.23886e-18)
(24.1779 3.84052 -1.27866e-18)
(24.1021 3.86429 5.4776e-18)
(24.0234 3.88891 3.07841e-18)
(23.9417 3.91435 4.53102e-20)
(23.8569 3.94061 -1.80366e-18)
(23.7687 3.96766 -3.59498e-20)
(23.677 3.99549 2.21478e-18)
(23.5817 4.02408 -2.39011e-18)
(23.4824 4.0534 1.35194e-18)
(23.3791 4.08343 1.37284e-20)
(23.2714 4.11413 0)
(23.159 4.14546 -1.74356e-18)
(23.0418 4.17741 -1.91747e-18)
(22.9195 4.20991 2.1094e-18)
(22.7916 4.24294 -1.12717e-18)
(22.6578 4.27644 -2.57912e-18)
(22.5178 4.31036 -3.61926e-20)
(22.3712 4.34464 1.59539e-18)
(22.2174 4.37921 -1.69112e-18)
(22.056 4.41399 -9.70161e-19)
(21.8865 4.44891 3.09702e-18)
(21.7083 4.48387 1.11962e-18)
(21.5207 4.51875 1.25662e-18)
(21.323 4.55343 1.42523e-18)
(21.1145 4.58776 -1.55909e-18)
(20.8942 4.62157 0)
(20.6612 4.65466 0)
(20.4144 4.68678 -4.30569e-18)
(20.1527 4.71766 -1.2031e-18)
(19.8746 4.74695 0)
(19.5787 4.77425 0)
(19.2633 4.79907 -1.66549e-18)
(18.9263 4.82082 0)
(18.5656 4.83875 -3.14445e-18)
(18.1786 4.85196 1.14992e-18)
(17.7623 4.85932 2.76002e-20)
(17.3134 4.85943 -3.73313e-18)
(16.8278 4.85048 8.34766e-19)
(16.3008 4.8302 -2.89505e-18)
(15.727 4.79563 -3.33015e-18)
(15.0996 4.74292 -2.58102e-18)
(14.4108 4.66699 2.98961e-18)
(13.6511 4.561 -3.50513e-18)
(12.8092 4.41577 2.07861e-18)
(11.8708 4.21842 2.49355e-18)
(10.8202 3.95116 -6.87117e-18)
(9.63543 3.5891 9.30922e-19)
(8.29825 3.09167 1.8253e-18)
(6.77598 2.42092 8.18837e-19)
(5.08189 1.43525 1.34655e-17)
(3.05993 0.356869 -1.56858e-17)
(25.6775 3.4382 -2.01406e-18)
(25.6629 3.4495 -2.35999e-18)
(25.663 3.48456 -2.35796e-18)
(25.6475 3.48303 2.79286e-18)
(25.6304 3.48285 6.42447e-20)
(25.6135 3.4882 0)
(25.5942 3.49263 6.21461e-20)
(25.5728 3.4964 -2.02058e-18)
(25.55 3.50066 2.1865e-18)
(25.5258 3.50533 0)
(25.5002 3.51032 2.77224e-18)
(25.4733 3.5157 -2.92105e-18)
(25.4452 3.52153 -3.3587e-18)
(25.4158 3.52783 1.7169e-18)
(25.3852 3.53464 0)
(25.3534 3.54197 0)
(25.3204 3.54985 -2.38259e-18)
(25.2861 3.55831 -2.67204e-18)
(25.2506 3.56737 2.88232e-18)
(25.2138 3.57704 6.50784e-18)
(25.1757 3.58736 3.37852e-20)
(25.1362 3.59835 -3.85682e-18)
(25.0953 3.61004 -8.95489e-20)
(25.053 3.62244 -6.95817e-20)
(25.0091 3.63557 5.32648e-20)
(24.9637 3.64947 2.85786e-18)
(24.9167 3.66415 0)
(24.8679 3.67964 1.74621e-18)
(24.8175 3.69595 -3.76049e-18)
(24.7652 3.71311 -2.12599e-18)
(24.7111 3.73112 -9.2474e-20)
(24.655 3.75002 -2.07137e-20)
(24.5969 3.76981 -2.76502e-18)
(24.5366 3.79051 0)
(24.4742 3.81212 0)
(24.4094 3.83466 -1.85205e-18)
(24.3423 3.85813 -1.61007e-20)
(24.2726 3.88254 0)
(24.2003 3.90789 0)
(24.1252 3.93417 -2.66567e-18)
(24.0473 3.96139 -1.46378e-18)
(23.9663 3.98954 3.1512e-18)
(23.8821 4.01862 3.55088e-18)
(23.7946 4.0486 -1.92378e-18)
(23.7036 4.07949 4.24419e-18)
(23.6088 4.11127 6.43538e-20)
(23.5101 4.14392 0)
(23.4073 4.17742 -1.414e-18)
(23.3 4.21175 3.05212e-18)
(23.1881 4.24689 3.43915e-18)
(23.0713 4.28281 -1.79668e-18)
(22.9492 4.31948 -2.06932e-18)
(22.8215 4.35688 2.27796e-18)
(22.6879 4.39496 0)
(22.548 4.43369 -2.7185e-18)
(22.4014 4.47302 0)
(22.2475 4.51289 0)
(22.086 4.55325 0)
(21.9162 4.59403 -2.04846e-18)
(21.7375 4.63515 1.148e-18)
(21.5494 4.67652 1.24834e-18)
(21.351 4.71803 0)
(21.1415 4.75956 6.50808e-20)
(20.9201 4.80097 2.08578e-20)
(20.6858 4.84207 0)
(20.4375 4.88265 1.03544e-18)
(20.1739 4.92248 1.17056e-18)
(19.8936 4.96123 -2.58432e-18)
(19.5951 4.99855 0)
(19.2766 5.03398 0)
(18.9361 5.06698 0)
(18.5711 5.09686 1.01099e-18)
(18.1792 5.12275 1.13269e-18)
(17.7571 5.14359 0)
(17.3013 5.15802 -3.09486e-20)
(16.8076 5.16432 5.02236e-18)
(16.2709 5.16024 9.48856e-19)
(15.6854 5.14287 2.2293e-18)
(15.0441 5.10837 -4.48802e-18)
(14.3385 5.05164 -5.01241e-20)
(13.5584 4.96571 8.76408e-19)
(12.6914 4.84119 -1.07987e-18)
(11.7222 4.66465 1.24089e-18)
(10.6331 4.41756 6.25104e-18)
(9.40022 4.07272 0)
(8.00284 3.58825 5.84259e-18)
(6.40575 2.91415 6.32304e-18)
(4.61968 1.92162 -1.09699e-17)
(2.45312 0.759573 9.84614e-18)
(25.6849 3.47109 3.97695e-18)
(25.6692 3.47277 0)
(25.6682 3.50268 2.30998e-18)
(25.653 3.50252 5.26903e-18)
(25.635 3.50206 -2.79005e-18)
(25.6175 3.50704 -3.1475e-18)
(25.5982 3.5119 7.13435e-18)
(25.5768 3.51625 -7.75908e-18)
(25.5541 3.52112 0)
(25.5301 3.52653 2.42329e-18)
(25.5048 3.53234 -2.55327e-18)
(25.4782 3.53861 0)
(25.4505 3.54538 0)
(25.4216 3.55269 0)
(25.3915 3.56054 3.78e-18)
(25.3602 3.56897 0)
(25.3278 3.578 2.335e-18)
(25.2941 3.58765 -2.59899e-18)
(25.2592 3.59795 -8.52557e-20)
(25.223 3.60891 -3.0391e-18)
(25.1856 3.62057 -3.53027e-18)
(25.1468 3.63295 7.39902e-18)
(25.1066 3.64606 0)
(25.065 3.65994 4.43927e-18)
(25.0219 3.67461 4.93573e-18)
(24.9773 3.69009 -9.13828e-20)
(24.931 3.7064 2.92418e-18)
(24.8831 3.72358 0)
(24.8335 3.74163 0)
(24.7821 3.76058 4.0236e-18)
(24.7288 3.78046 -2.0602e-18)
(24.6736 3.80127 -2.28853e-18)
(24.6163 3.82304 2.59419e-18)
(24.557 3.84578 2.85009e-18)
(24.4954 3.86951 -3.23569e-18)
(24.4315 3.89424 5.19237e-18)
(24.3652 3.91998 5.7235e-20)
(24.2964 3.94674 0)
(24.2249 3.97452 -2.28063e-18)
(24.1507 4.00334 0)
(24.0736 4.03318 2.75315e-18)
(23.9934 4.06407 -6.11783e-18)
(23.91 4.09598 -1.71608e-18)
(23.8233 4.12893 -5.36461e-20)
(23.733 4.16291 -4.12443e-18)
(23.6389 4.19791 4.46947e-18)
(23.5409 4.23392 9.63103e-20)
(23.4387 4.27094 -2.6494e-18)
(23.332 4.30896 1.45521e-18)
(23.2206 4.34795 -1.60352e-18)
(23.1043 4.38791 1.81553e-18)
(22.9827 4.42881 -6.11899e-20)
(22.8554 4.47064 -8.61842e-20)
(22.7221 4.51338 2.35951e-18)
(22.5825 4.55699 2.67475e-18)
(22.436 4.60145 -1.49338e-18)
(22.2823 4.64671 -6.46014e-20)
(22.1207 4.69274 -7.16669e-20)
(21.9508 4.73949 3.88802e-18)
(21.772 4.78689 -1.11394e-18)
(21.5834 4.83489 -8.85495e-20)
(21.3845 4.88338 3.96641e-18)
(21.1744 4.93228 2.99075e-18)
(20.9522 4.98145 -4.93172e-18)
(20.7169 5.03077 -1.8739e-18)
(20.4672 5.08005 2.00062e-18)
(20.202 5.12908 2.29056e-18)
(19.9198 5.17759 3.39434e-20)
(19.6191 5.22525 0)
(19.2978 5.27167 -1.63091e-18)
(18.954 5.31636 2.66951e-18)
(18.5852 5.35867 -9.871e-19)
(18.1887 5.39782 0)
(17.7611 5.43281 -1.3212e-18)
(17.2988 5.46236 1.43437e-18)
(16.7972 5.48482 -3.36093e-18)
(16.2512 5.49801 -3.82101e-18)
(15.6544 5.49912 4.40851e-18)
(14.9994 5.48435 5.13822e-18)
(14.2772 5.44865 -1.86698e-20)
(13.4765 5.385 3.56265e-18)
(12.5842 5.28389 1.09206e-18)
(11.5832 5.13142 -6.41939e-18)
(10.4543 4.90845 -3.20957e-18)
(9.17051 4.58571 0)
(7.70834 4.11954 -5.46107e-18)
(6.02864 3.44865 -8.79399e-18)
(4.12741 2.45801 1.41774e-17)
(1.8232 1.21234 0)
(25.6909 3.49811 0)
(25.6741 3.4945 0)
(25.6725 3.52017 0)
(25.6576 3.52108 -2.53476e-18)
(25.6394 3.52068 -2.88747e-18)
(25.6216 3.52542 3.04175e-18)
(25.6023 3.53066 -6.35073e-20)
(25.5811 3.5356 -3.72896e-18)
(25.5586 3.54109 -4.10555e-18)
(25.5348 3.54721 0)
(25.5099 3.55383 -4.96756e-18)
(25.4838 3.56097 0)
(25.4565 3.56867 3.00394e-18)
(25.4281 3.57696 0)
(25.3985 3.58586 -3.71551e-18)
(25.3678 3.59537 4.13171e-18)
(25.336 3.60553 3.50609e-20)
(25.303 3.61636 0)
(25.2688 3.62788 2.65284e-18)
(25.2333 3.64012 -2.9473e-18)
(25.1966 3.6531 -1.02613e-19)
(25.1585 3.66684 -3.52394e-18)
(25.1191 3.68137 3.87347e-18)
(25.0783 3.69672 -8.62205e-18)
(25.036 3.7129 -2.399e-18)
(24.9922 3.72994 2.5292e-20)
(24.9468 3.74788 -2.80755e-18)
(24.8998 3.76672 0)
(24.851 3.7865 3.53328e-18)
(24.8005 3.80725 -3.59563e-18)
(24.7482 3.82897 -1.98201e-18)
(24.6939 3.85169 4.58699e-18)
(24.6375 3.87544 -5.12636e-18)
(24.5791 3.90022 -2.91584e-18)
(24.5185 3.92607 -1.22583e-19)
(24.4555 3.95299 6.58183e-18)
(24.3902 3.981 0)
(24.3223 4.01011 0)
(24.2518 4.04034 -2.016e-20)
(24.1785 4.0717 -1.52059e-20)
(24.1023 4.10419 -2.71037e-18)
(24.023 4.13782 -2.72145e-20)
(23.9405 4.1726 -1.67278e-18)
(23.8547 4.20854 3.44436e-18)
(23.7652 4.24563 1.91961e-18)
(23.672 4.28389 0)
(23.5747 4.3233 0)
(23.4733 4.36387 2.65807e-18)
(23.3674 4.4056 -5.70878e-18)
(23.2567 4.44849 0)
(23.141 4.49253 -5.20953e-18)
(23.02 4.53771 -2.01003e-18)
(22.8933 4.58403 2.07041e-18)
(22.7606 4.63148 0)
(22.6214 4.68004 2.5402e-18)
(22.4753 4.7297 -1.44737e-18)
(22.3218 4.78043 3.13488e-18)
(22.1605 4.83222 -5.12407e-18)
(21.9907 4.88503 -3.63433e-20)
(21.8119 4.93882 0)
(21.6233 4.99354 -2.36938e-18)
(21.4242 5.04914 -2.62759e-18)
(21.2137 5.10554 1.4785e-18)
(20.9909 5.16266 2.18315e-20)
(20.7548 5.22037 1.75414e-18)
(20.5042 5.27854 -4.01749e-18)
(20.2377 5.33699 1.04292e-18)
(19.954 5.39551 2.5312e-18)
(19.6513 5.45382 -1.3658e-18)
(19.3277 5.51156 0)
(18.9811 5.56831 3.49535e-18)
(18.6088 5.6235 3.94354e-18)
(18.2081 5.67643 0)
(17.7755 5.72617 -1.30636e-18)
(17.3072 5.77152 2.33688e-20)
(16.7983 5.81093 -4.92698e-18)
(16.2433 5.84235 2.85877e-18)
(15.6357 5.86307 2.16992e-18)
(14.9674 5.86938 -1.02836e-17)
(14.2288 5.85631 -1.55805e-18)
(13.4078 5.81685 -9.22107e-19)
(12.4901 5.74143 -4.35826e-18)
(11.457 5.61579 5.2303e-18)
(10.2871 5.42021 -5.84048e-18)
(8.95019 5.12348 1.04682e-18)
(7.41934 4.67976 0)
(5.64711 4.01936 0)
(3.59759 3.03871 1.93441e-18)
(1.18874 1.69142 -6.42358e-18)
(25.6958 3.52058 0)
(25.678 3.51419 0)
(25.6762 3.53647 0)
(25.6618 3.53844 2.00897e-19)
(25.6436 3.53844 -2.68729e-18)
(25.6257 3.54314 6.01927e-18)
(25.6066 3.54879 -6.57431e-18)
(25.5856 3.55433 1.09968e-17)
(25.5634 3.56046 1.25134e-19)
(25.5401 3.56729 0)
(25.5155 3.57472 4.89687e-18)
(25.4899 3.58273 2.72189e-18)
(25.4631 3.59136 -5.82991e-18)
(25.4353 3.60062 0)
(25.4063 3.61053 3.61623e-18)
(25.3763 3.62112 -3.81136e-18)
(25.3451 3.6324 4.16483e-20)
(25.3128 3.64439 -4.60599e-18)
(25.2793 3.65712 2.42944e-20)
(25.2446 3.67061 9.25755e-20)
(25.2086 3.68489 -1.11628e-19)
(25.1714 3.69999 6.83736e-18)
(25.1328 3.71592 -1.01715e-19)
(25.0928 3.73271 8.2851e-18)
(25.0514 3.75039 0)
(25.0085 3.76898 0)
(24.964 3.78852 0)
(24.9179 3.80902 0)
(24.8701 3.83052 -6.67056e-18)
(24.8206 3.85303 7.28112e-18)
(24.7692 3.87659 8.05582e-18)
(24.7159 3.90122 -2.21155e-18)
(24.6605 3.92693 -4.86421e-18)
(24.6031 3.95375 2.61192e-18)
(24.5435 3.98171 0)
(24.4816 4.01082 -9.71362e-18)
(24.4173 4.0411 -3.62714e-18)
(24.3504 4.07257 -1.99244e-20)
(24.2809 4.10526 0)
(24.2087 4.13916 6.23999e-20)
(24.1335 4.1743 0)
(24.0552 4.2107 -2.89579e-18)
(23.9738 4.24836 6.21817e-18)
(23.8889 4.2873 -3.47287e-18)
(23.8004 4.32753 -1.92612e-18)
(23.7081 4.36905 -8.25292e-20)
(23.6118 4.41189 2.24142e-18)
(23.5113 4.45605 0)
(23.4063 4.50153 -2.7342e-18)
(23.2965 4.54834 0)
(23.1816 4.5965 6.72019e-18)
(23.0614 4.646 -1.89208e-18)
(22.9355 4.69685 2.00497e-18)
(22.8034 4.74906 2.30311e-18)
(22.6649 4.80262 -4.87713e-18)
(22.5194 4.85754 -2.6983e-18)
(22.3665 4.91381 0)
(22.2057 4.97142 3.39894e-18)
(22.0363 5.03037 -1.88122e-18)
(21.8578 5.09064 0)
(21.6694 5.15219 -2.26439e-18)
(21.4703 5.21501 0)
(21.2598 5.27905 0)
(21.0368 5.34424 -1.60656e-18)
(20.8004 5.41051 3.50593e-18)
(20.5492 5.47775 2.05462e-18)
(20.2819 5.54585 9.4903e-20)
(19.9971 5.61461 7.04411e-20)
(19.693 5.68384 0)
(19.3676 5.75322 0)
(19.0187 5.82241 -5.16207e-18)
(18.6436 5.89091 -3.86116e-18)
(18.2394 5.95811 -6.58261e-18)
(17.8026 6.02318 -1.29527e-18)
(17.3289 6.08503 4.31423e-18)
(16.8135 6.14224 3.3289e-18)
(16.2506 6.19289 9.78606e-19)
(15.6332 6.23441 -5.53061e-18)
(14.9527 6.26325 5.19974e-18)
(14.1988 6.27458 0)
(13.3587 6.26151 -3.62015e-18)
(12.4166 6.21448 6.69081e-18)
(11.3524 6.11905 -2.65242e-18)
(10.1423 5.95511 6.90677e-18)
(8.75198 5.68981 0)
(7.15141 5.27561 0)
(5.27817 4.64011 1.25132e-18)
(3.07399 3.67594 -2.44908e-18)
(0.59182 2.19635 -3.40868e-18)
(25.7003 3.53932 0)
(25.6817 3.53188 0)
(25.6794 3.55147 -4.26547e-18)
(25.6657 3.55452 9.67669e-18)
(25.6477 3.55519 -1.05104e-17)
(25.6299 3.56005 -5.76925e-18)
(25.6111 3.56616 -3.27106e-18)
(25.5905 3.57235 3.48639e-18)
(25.5686 3.57915 1.64294e-19)
(25.5457 3.58672 -8.51284e-18)
(25.5217 3.59496 -3.11914e-20)
(25.4966 3.60383 -5.06503e-18)
(25.4704 3.61337 -2.68123e-18)
(25.4432 3.6236 1.80699e-20)
(25.4149 3.63453 1.23414e-19)
(25.3855 3.64617 -7.4963e-18)
(25.355 3.65856 8.08797e-18)
(25.3235 3.6717 1.65697e-19)
(25.2907 3.68562 -2.33208e-18)
(25.2568 3.70035 -8.0571e-18)
(25.2217 3.71592 -3.04352e-18)
(25.1853 3.73234 -3.24882e-18)
(25.1476 3.74965 -3.6769e-18)
(25.1085 3.76787 2.97181e-20)
(25.068 3.78703 -1.30795e-17)
(25.0261 3.80716 7.17728e-18)
(24.9826 3.82828 -5.19733e-18)
(24.9375 3.85042 -1.07404e-19)
(24.8907 3.87362 -3.5559e-20)
(24.8422 3.89789 7.02836e-18)
(24.7918 3.92327 -7.69818e-18)
(24.7396 3.94979 -4.30183e-18)
(24.6853 3.97745 9.33371e-18)
(24.629 4.00631 -2.51193e-18)
(24.5705 4.03637 -5.64757e-18)
(24.5097 4.06766 6.17409e-18)
(24.4465 4.10021 3.45017e-18)
(24.3807 4.13404 3.7926e-18)
(24.3124 4.16917 -4.04985e-18)
(24.2412 4.20563 2.29203e-18)
(24.1672 4.24343 0)
(24.0901 4.28259 9.77071e-20)
(24.0097 4.32314 -2.95029e-18)
(23.9259 4.36509 3.26104e-18)
(23.8385 4.40847 1.85901e-18)
(23.7474 4.45329 -4.01239e-18)
(23.6522 4.49956 2.16479e-18)
(23.5527 4.54732 2.48165e-18)
(23.4487 4.59657 -2.64879e-18)
(23.34 4.64734 2.89504e-18)
(23.2261 4.69964 -6.50504e-18)
(23.1069 4.75349 1.83294e-18)
(22.9819 4.80891 -1.94287e-18)
(22.8508 4.86591 -2.234e-18)
(22.7131 4.92452 7.28388e-18)
(22.5685 4.98474 -5.25776e-18)
(22.4164 5.0466 -1.50986e-18)
(22.2563 5.1101 -1.62778e-18)
(22.0876 5.17525 1.85261e-18)
(21.9097 5.24207 -7.99852e-18)
(21.7218 5.31056 4.44348e-18)
(21.5232 5.38069 -2.53541e-18)
(21.313 5.45246 4.02087e-18)
(21.0902 5.52586 4.54418e-18)
(20.8538 5.60083 0)
(20.6024 5.67731 0)
(20.3348 5.75523 2.19177e-18)
(20.0494 5.83448 -2.35102e-18)
(19.7444 5.91487 2.6694e-18)
(19.4178 5.9962 0)
(19.0673 6.07818 6.28824e-20)
(18.6901 6.16041 -3.84008e-18)
(18.2832 6.24237 -1.05107e-18)
(17.8429 6.32335 1.22575e-18)
(17.3648 6.40241 0)
(16.844 6.47827 4.96128e-18)
(16.2742 6.54918 -1.86203e-18)
(15.648 6.61275 1.13909e-18)
(14.9566 6.66567 -2.60735e-18)
(14.1888 6.70333 1.5046e-18)
(13.331 6.71905 3.71961e-18)
(12.3662 6.70349 0)
(11.2722 6.64221 0)
(10.0232 6.51506 7.14813e-18)
(8.58038 6.28792 -9.57162e-18)
(6.91048 5.91349 0)
(4.92867 5.31813 0)
(2.61814 4.36379 -2.66605e-17)
(-0.0398031 2.79404 -3.20316e-17)
(25.7046 3.55504 3.56727e-18)
(25.6853 3.54769 -9.11199e-21)
(25.6825 3.56516 -4.24756e-18)
(25.6695 3.56927 0)
(25.6518 3.57083 -5.26572e-18)
(25.6342 3.57605 1.12661e-17)
(25.6157 3.58269 -6.12178e-18)
(25.5956 3.58958 1.1954e-19)
(25.5742 3.5971 -3.66545e-18)
(25.5518 3.60543 0)
(25.5283 3.61449 4.57012e-18)
(25.5038 3.62423 5.02077e-18)
(25.4783 3.63469 -2.62081e-18)
(25.4517 3.64588 2.72976e-18)
(25.4241 3.65781 6.54661e-18)
(25.3955 3.6705 -7.23231e-18)
(25.3658 3.68397 3.76137e-18)
(25.335 3.69824 4.41699e-18)
(25.3031 3.71334 0)
(25.2701 3.72929 1.05026e-17)
(25.2358 3.74613 -5.78877e-18)
(25.2003 3.76386 9.45089e-18)
(25.1636 3.78253 0)
(25.1254 3.80216 -3.91391e-18)
(25.0859 3.82278 4.10205e-18)
(25.045 3.84442 4.53627e-18)
(25.0025 3.86711 2.58227e-18)
(24.9585 3.89088 -2.83791e-18)
(24.9128 3.91576 3.11932e-18)
(24.8653 3.94177 0)
(24.8161 3.96896 3.64801e-18)
(24.765 3.99735 -1.5514e-19)
(24.7119 4.02696 1.96209e-18)
(24.6567 4.05783 -1.00076e-19)
(24.5994 4.08998 8.17267e-18)
(24.5397 4.12345 1.20564e-19)
(24.4777 4.15826 1.32377e-19)
(24.4132 4.19445 -7.07198e-18)
(24.3461 4.23203 4.01941e-18)
(24.2762 4.27103 -2.22322e-18)
(24.2033 4.31149 -9.64623e-20)
(24.1274 4.35342 5.25899e-18)
(24.0483 4.39687 -2.96085e-18)
(23.9658 4.44184 -3.24935e-18)
(23.8796 4.48837 -1.29102e-19)
(23.7896 4.53648 9.58033e-18)
(23.6957 4.58622 -4.26657e-18)
(23.5974 4.63759 2.30326e-18)
(23.4946 4.69063 0)
(23.3871 4.74537 -2.81194e-18)
(23.2744 4.80184 6.29464e-18)
(23.1563 4.86007 1.77501e-18)
(23.0325 4.92008 -3.70443e-18)
(22.9025 4.98192 -2.07911e-18)
(22.7659 5.04561 0)
(22.6223 5.11119 2.62653e-18)
(22.4712 5.17869 1.01978e-19)
(22.3121 5.24813 1.02231e-19)
(22.1443 5.31956 0)
(21.9672 5.393 7.82468e-18)
(21.7801 5.46849 0)
(21.5823 5.54603 2.38761e-18)
(21.3727 5.62566 -2.72364e-18)
(21.1504 5.70738 -3.03598e-18)
(20.9143 5.7912 -1.59667e-18)
(20.6632 5.8771 -1.8353e-18)
(20.3956 5.96505 0)
(20.11 6.05498 0)
(19.8046 6.14681 -2.67619e-18)
(19.4772 6.2404 -1.52923e-18)
(19.1255 6.33553 1.72021e-18)
(18.7467 6.43192 3.86118e-18)
(18.3376 6.52914 6.61967e-18)
(17.8944 6.62665 -2.42714e-18)
(17.4127 6.72364 2.81848e-18)
(16.887 6.81902 -5.92062e-20)
(16.311 6.91126 3.76722e-18)
(15.6769 6.99821 0)
(14.9753 7.07685 0)
(14.1944 7.14289 -6.16997e-18)
(13.3195 7.19002 1.93023e-18)
(12.3325 7.20927 1.14015e-18)
(11.209 7.1865 1.40975e-18)
(9.92071 7.10193 -5.62187e-18)
(8.42401 6.92082 -2.3851e-18)
(6.68162 6.59885 1.32368e-17)
(4.585 6.05089 -2.22295e-17)
(2.1857 5.10983 -2.99244e-18)
(-0.755721 3.50218 1.91043e-19)
(25.7089 3.56824 2.79788e-18)
(25.689 3.56178 0)
(25.6857 3.57758 4.15572e-18)
(25.6732 3.58275 0)
(25.6559 3.58536 5.11603e-18)
(25.6386 3.5911 -5.38983e-18)
(25.6205 3.59835 3.01667e-18)
(25.601 3.60598 6.68909e-18)
(25.5801 3.61426 -7.23928e-18)
(25.5583 3.62338 -1.60618e-19)
(25.5354 3.63326 4.26979e-18)
(25.5116 3.64388 0)
(25.4867 3.65526 5.32584e-18)
(25.4609 3.6674 -5.84852e-18)
(25.434 3.68032 -6.33796e-18)
(25.4062 3.69405 3.38494e-18)
(25.3773 3.70859 -1.36247e-19)
(25.3474 3.72399 0)
(25.3164 3.74025 -4.52018e-18)
(25.2842 3.7574 -1.01039e-17)
(25.2509 3.77548 2.82293e-18)
(25.2164 3.79451 -6.09857e-18)
(25.1806 3.81452 -3.29203e-18)
(25.1435 3.83554 0)
(25.1051 3.8576 3.97488e-18)
(25.0652 3.88073 4.36811e-18)
(25.0238 3.90496 0)
(24.9809 3.93034 0)
(24.9363 3.95688 0)
(24.89 3.98462 1.28423e-19)
(24.842 4.0136 -3.48282e-18)
(24.792 4.04384 -7.83484e-18)
(24.7402 4.07538 -4.3851e-18)
(24.6862 4.10825 4.65512e-18)
(24.6301 4.14249 -2.55957e-18)
(24.5718 4.17812 -2.81474e-18)
(24.5111 4.21519 3.21884e-18)
(24.4478 4.25371 2.59836e-19)
(24.382 4.29374 -3.73991e-18)
(24.3134 4.33529 -6.26435e-18)
(24.2419 4.3784 2.26397e-18)
(24.1673 4.4231 0)
(24.0895 4.46943 -2.85635e-18)
(24.0083 4.51743 3.12239e-18)
(23.9235 4.56712 -3.44588e-18)
(23.8349 4.61854 -3.79583e-18)
(23.7423 4.67173 -4.04971e-18)
(23.6454 4.72673 0)
(23.544 4.78357 -2.46273e-18)
(23.4378 4.8423 2.80423e-18)
(23.3264 4.90296 -9.45617e-20)
(23.2097 4.96558 0)
(23.0871 5.03021 1.87458e-18)
(22.9584 5.09691 4.11844e-18)
(22.8231 5.16572 -4.55653e-18)
(22.6808 5.23668 2.46975e-18)
(22.531 5.30985 5.68237e-18)
(22.373 5.38529 -6.08224e-18)
(22.2064 5.46304 0)
(22.0304 5.54316 -3.86552e-18)
(21.8444 5.62571 -4.18154e-18)
(21.6475 5.71075 -2.39139e-18)
(21.4389 5.79831 -2.6916e-18)
(21.2174 5.88846 1.3741e-18)
(20.982 5.98124 4.92947e-18)
(20.7315 6.07667 -1.88035e-18)
(20.4644 6.17479 6.08359e-18)
(20.179 6.2756 -2.37041e-18)
(19.8735 6.37907 3.88595e-18)
(19.5459 6.48513 1.46658e-18)
(19.1936 6.59368 3.36735e-18)
(18.8137 6.70454 0)
(18.4031 6.81742 2.20937e-18)
(17.9577 6.93191 -1.14451e-18)
(17.4729 7.04738 -5.69681e-18)
(16.9431 7.16294 -1.49715e-19)
(16.3618 7.2773 -3.93654e-18)
(15.7207 7.38862 1.02995e-18)
(15.0098 7.49418 2.63984e-18)
(14.2169 7.59011 1.10581e-17)
(13.326 7.67054 -1.9679e-18)
(12.3177 7.72701 -1.18344e-17)
(11.1656 7.74586 -5.95346e-18)
(9.83866 7.7079 7.85784e-18)
(8.2878 7.5784 2.22001e-17)
(6.47031 7.31583 -1.74618e-17)
(4.26724 6.80995 3.26515e-17)
(1.75972 5.90619 -1.98213e-18)
(-1.49356 4.29883 2.87869e-17)
(25.713 3.57932 5.61126e-18)
(25.6929 3.57429 3.94931e-18)
(25.6888 3.58883 4.01678e-18)
(25.6769 3.59501 0)
(25.6601 3.59877 0)
(25.6432 3.60518 0)
(25.6256 3.6131 5.94501e-18)
(25.6066 3.62152 -3.02699e-18)
(25.5863 3.6306 3.44021e-18)
(25.5651 3.64052 -3.91332e-18)
(25.5429 3.65125 4.12379e-18)
(25.5198 3.66275 4.70719e-18)
(25.4957 3.67504 -4.96076e-18)
(25.4706 3.68813 0)
(25.4446 3.70204 2.97734e-18)
(25.4176 3.71679 -2.55045e-21)
(25.3896 3.7324 -3.60174e-18)
(25.3606 3.74889 -3.95454e-18)
(25.3305 3.76629 4.50609e-18)
(25.2993 3.78463 1.81103e-19)
(25.267 3.80393 2.7279e-18)
(25.2335 3.82423 1.10874e-19)
(25.1988 3.84556 3.2824e-18)
(25.1627 3.86794 -3.47256e-18)
(25.1254 3.89142 -7.9389e-18)
(25.0866 3.91602 4.03045e-18)
(25.0464 3.94178 4.80122e-18)
(25.0046 3.96874 -7.491e-18)
(24.9613 3.99692 -2.78377e-18)
(24.9162 4.02637 3.17885e-18)
(24.8694 4.05711 -3.36387e-18)
(24.8208 4.08919 1.54706e-19)
(24.7702 4.12264 -4.06704e-18)
(24.7176 4.1575 -9.1171e-18)
(24.6628 4.1938 2.55399e-18)
(24.6058 4.23158 -8.47475e-21)
(24.5465 4.27088 -1.23622e-19)
(24.4846 4.31174 9.94766e-18)
(24.4202 4.35418 3.7523e-18)
(24.353 4.39827 2.21566e-18)
(24.283 4.44402 -2.1824e-18)
(24.2099 4.49148 0)
(24.1335 4.5407 2.75629e-18)
(24.0538 4.5917 1.09491e-19)
(23.9705 4.64455 3.21541e-18)
(23.8834 4.69927 3.68812e-18)
(23.7922 4.75592 -3.76397e-18)
(23.6968 4.81454 0)
(23.5969 4.87518 -1.18228e-20)
(23.4922 4.9379 -1.10126e-19)
(23.3824 5.00274 -3.12487e-18)
(23.2672 5.06976 6.5372e-18)
(23.1462 5.13902 9.14383e-21)
(23.019 5.21058 -3.92645e-18)
(22.8852 5.2845 -2.08815e-18)
(22.7444 5.36086 -4.80987e-18)
(22.596 5.43973 2.67146e-18)
(22.4395 5.52117 -2.1982e-20)
(22.2744 5.60526 6.5738e-18)
(22.0999 5.69209 -1.90301e-18)
(21.9152 5.78174 6.23117e-18)
(21.7197 5.87429 0)
(21.5123 5.96984 0)
(21.2921 6.06848 0)
(21.0579 6.17027 -3.17086e-18)
(20.8084 6.27532 0)
(20.5423 6.3837 -4.10437e-18)
(20.2577 6.49549 4.49277e-18)
(19.9529 6.61071 -1.31648e-18)
(19.6256 6.72941 -1.52118e-18)
(19.2734 6.85158 -1.68844e-18)
(18.8934 6.97716 3.60713e-18)
(18.4821 7.10599 2.09062e-18)
(18.0354 7.2378 4.8401e-18)
(17.5488 7.37217 0)
(17.0163 7.50845 -3.3094e-18)
(16.431 7.64561 -1.96106e-18)
(15.7846 7.78213 2.18995e-18)
(15.0664 7.9157 -1.3706e-18)
(14.2635 8.0429 -4.91218e-18)
(13.3591 8.15843 0)
(12.3325 8.25452 2.03288e-19)
(11.155 8.31816 4.72134e-18)
(9.79314 8.33122 -1.26359e-17)
(8.19092 8.25963 -1.68461e-17)
(6.30119 8.0599 -2.02449e-17)
(3.98223 7.61227 2.79713e-17)
(1.34243 6.78164 -2.33486e-17)
(-2.22876 5.18762 -1.07e-17)
(25.717 3.58862 3.36921e-18)
(25.697 3.58537 -1.16082e-17)
(25.6922 3.59899 -4.01362e-18)
(25.6807 3.60614 0)
(25.6645 3.61111 0)
(25.648 3.61829 -5.1001e-18)
(25.6309 3.62694 -1.13166e-17)
(25.6125 3.63618 6.06839e-18)
(25.5929 3.64609 -3.43773e-18)
(25.5724 3.65684 0)
(25.5509 3.66843 3.9808e-18)
(25.5285 3.68081 0)
(25.5052 3.69401 0)
(25.481 3.70804 0)
(25.4558 3.72293 -2.98783e-18)
(25.4297 3.73868 6.43251e-18)
(25.4026 3.75534 3.59994e-18)
(25.3746 3.77291 -7.36356e-21)
(25.3455 3.79143 8.52279e-18)
(25.3153 3.81093 -4.39505e-18)
(25.284 3.83144 2.62223e-18)
(25.2516 3.85299 -8.40607e-18)
(25.218 3.87561 -1.26779e-19)
(25.1831 3.89934 6.8085e-18)
(25.1469 3.92421 -3.82013e-18)
(25.1093 3.95025 -8.38318e-18)
(25.0703 3.97752 1.34622e-17)
(25.0298 4.00603 1.96935e-19)
(24.9877 4.03582 2.7872e-18)
(24.944 4.06695 -5.87683e-18)
(24.8985 4.09944 3.36452e-18)
(24.8512 4.13333 3.69936e-18)
(24.802 4.16867 0)
(24.7507 4.20549 6.71476e-18)
(24.6974 4.24383 -7.08936e-18)
(24.6418 4.28374 -2.59865e-18)
(24.5839 4.32525 2.98328e-18)
(24.5236 4.36842 -3.14619e-18)
(24.4607 4.41328 -3.46932e-18)
(24.395 4.45987 -3.81515e-18)
(24.3265 4.50825 2.19093e-18)
(24.255 4.55846 -2.31651e-18)
(24.1802 4.61054 -1.08639e-19)
(24.1021 4.66455 2.81274e-18)
(24.0204 4.72053 -6.32186e-18)
(23.9349 4.77854 3.41876e-18)
(23.8454 4.83864 3.91926e-18)
(23.7517 4.90087 6.33351e-18)
(23.6535 4.9653 -4.59757e-18)
(23.5504 5.03199 2.64631e-18)
(23.4423 5.10101 -5.61397e-18)
(23.3288 5.17242 3.10587e-18)
(23.2095 5.2463 -3.56355e-18)
(23.0841 5.32272 5.92662e-18)
(22.952 5.40177 6.88276e-20)
(22.813 5.48352 -1.77206e-20)