/*--------------------------------*- C++ -*----------------------------------*\
  =========                 |
  \\      /  F ield         | OpenFOAM: The Open Source CFD Toolbox
   \\    /   O peration     | Website:  https://openfoam.org
    \\  /    A nd           | Version:  11
     \\/     M anipulation  |
\*---------------------------------------------------------------------------*/
FoamFile
{
    format      ascii;
    class       volVectorField;
    location    "400";
    object      U;
}
// * * * * * * * * * * * * * * * * * * * * * * * * * * * * * * * * * * * * * //

dimensions      [0 1 -1 0 0 0 0];

internalField   nonuniform List<vector> 
31595
(
(7.33707 -0.027864 -4.39182e-20)
(7.35494 -0.0187141 3.48833e-20)
(7.34521 -0.0188481 8.76794e-20)
(7.35007 -0.019331 9.4519e-20)
(7.34594 -0.01917 0)
(7.34688 -0.0190177 0)
(7.34398 -0.0190513 0)
(7.34335 -0.0189314 8.11256e-20)
(7.34097 -0.0188453 4.13522e-21)
(7.33953 -0.0186905 0)
(7.33731 -0.0185298 0)
(7.33545 -0.0183161 6.25622e-20)
(7.33324 -0.0180825 -6.58705e-20)
(7.33115 -0.0178073 7.67219e-20)
(7.32888 -0.0175062 -8.07788e-20)
(7.32665 -0.0171704 9.08832e-20)
(7.32432 -0.0168081 0)
(7.32199 -0.0164167 -1.13179e-19)
(7.31961 -0.0160015 2.40274e-19)
(7.31721 -0.0155635 -6.81532e-20)
(7.31479 -0.0151074 7.17548e-20)
(7.31235 -0.0146367 0)
(7.30991 -0.0141569 0)
(7.30746 -0.013674 9.73141e-20)
(7.30502 -0.0131952 -4.94371e-20)
(7.30259 -0.0127291 1.87663e-21)
(7.30018 -0.0122857 -1.21886e-19)
(7.29779 -0.0118763 -6.80605e-20)
(7.29543 -0.0115143 1.4542e-19)
(7.29311 -0.0112147 -1.56303e-19)
(7.29084 -0.0109946 0)
(7.28861 -0.010873 -4.59906e-20)
(7.28645 -0.0108714 5.02793e-20)
(7.28434 -0.0110133 -5.29384e-20)
(7.2823 -0.0113246 5.75053e-20)
(7.28033 -0.0118337 -6.26081e-20)
(7.27842 -0.0125712 3.21576e-20)
(7.27659 -0.0135701 1.07331e-19)
(7.27482 -0.0148656 0)
(7.27311 -0.0164952 -4.13064e-20)
(7.27146 -0.0184986 8.68395e-20)
(7.26985 -0.0209174 0)
(7.26828 -0.0237954 0)
(7.26674 -0.0271777 -2.76051e-20)
(7.26519 -0.0311119 1.15008e-19)
(7.26364 -0.0356469 0)
(7.26205 -0.0408333 -3.28415e-20)
(7.2604 -0.0467238 6.84564e-20)
(7.25867 -0.0533725 -3.75542e-20)
(7.25683 -0.0608357 3.85943e-20)
(7.25484 -0.0691719 -1.09122e-19)
(7.25268 -0.0784419 1.98245e-20)
(7.2503 -0.0887094 -7.61332e-20)
(7.24768 -0.100041 1.08312e-19)
(7.24477 -0.112507 -2.64704e-20)
(7.24153 -0.126182 -5.97015e-20)
(7.23791 -0.141146 -3.38756e-20)
(7.23388 -0.157485 -2.22558e-20)
(7.22937 -0.175289 -4.14287e-20)
(7.22435 -0.194658 6.66695e-20)
(7.21876 -0.215701 -1.98429e-21)
(7.21254 -0.238537 2.74876e-20)
(7.20564 -0.263296 -2.68952e-21)
(7.19799 -0.290123 -1.30868e-20)
(7.18952 -0.319177 2.06571e-20)
(7.18017 -0.350639 -7.84223e-20)
(7.16987 -0.384708 -2.44767e-20)
(7.15853 -0.421613 2.14406e-20)
(7.14608 -0.461611 8.18952e-20)
(7.13244 -0.504998 4.48019e-21)
(7.11751 -0.552106 -4.58144e-20)
(7.1012 -0.603324 9.19983e-22)
(7.08342 -0.659111 4.15415e-20)
(7.06406 -0.719967 0)
(7.04306 -0.786584 5.29168e-20)
(7.02029 -0.859497 0)
(6.99572 -0.940072 2.75824e-20)
(6.96925 -1.0282 0)
(6.9409 -1.12782 0)
(6.91087 -1.23451 0)
(6.87851 -1.36326 4.73706e-20)
(6.84717 -1.4889 2.12176e-20)
(6.80849 -1.6709 -3.35692e-20)
(6.78814 -1.80234 -2.77029e-20)
(6.72688 -2.09722 1.23997e-20)
(6.77065 -2.18991 4.21638e-21)
(6.61468 -2.71927 6.26412e-21)
(6.97662 -2.74396 2.09587e-21)
(6.40607 -3.76236 -2.29603e-21)
(7.34679 -0.0243722 1.79523e-19)
(7.3498 -0.0184103 8.39667e-20)
(7.3491 -0.0168241 6.68576e-20)
(7.34832 -0.0177676 -2.76153e-19)
(7.34726 -0.0175112 0)
(7.34618 -0.0173617 0)
(7.34463 -0.0173025 1.34018e-19)
(7.34309 -0.0172112 0)
(7.34133 -0.017063 0)
(7.33952 -0.0169016 -1.87369e-19)
(7.33758 -0.0166989 -3.1627e-19)
(7.33559 -0.0164662 2.29167e-19)
(7.33351 -0.0161971 1.28434e-19)
(7.33138 -0.0158974 2.8849e-19)
(7.32919 -0.015565 -1.5412e-19)
(7.32695 -0.0152036 -8.73617e-20)
(7.32467 -0.014814 9.81213e-20)
(7.32235 -0.0143992 -3.13385e-19)
(7.31999 -0.0139616 2.04421e-21)
(7.31761 -0.0135048 -2.5146e-19)
(7.3152 -0.0130328 0)
(7.31278 -0.0125504 0)
(7.31034 -0.012063 0)
(7.30789 -0.0115774 0)
(7.30544 -0.011101 1.98312e-19)
(7.30299 -0.0106427 0)
(7.30055 -0.0102127 2.36041e-19)
(7.29812 -0.00982263 0)
(7.29571 -0.00948564 1.39068e-19)
(7.29332 -0.00921668 7.56883e-20)
(7.29096 -0.0090325 -8.30455e-20)
(7.28863 -0.00895183 8.6237e-20)
(7.28634 -0.00899531 9.45915e-20)
(7.28408 -0.00918573 -1.04767e-19)
(7.28187 -0.009548 1.1032e-19)
(7.2797 -0.0101091 -6.08477e-20)
(7.27756 -0.0108984 1.28509e-19)
(7.27547 -0.0119473 -6.92429e-20)
(7.27341 -0.0132892 0)
(7.27138 -0.0149598 0)
(7.26937 -0.0169968 -1.74703e-19)
(7.26737 -0.0194397 -2.03184e-21)
(7.26537 -0.0223301 0)
(7.26335 -0.0257113 1.08638e-19)
(7.2613 -0.0296286 -1.15175e-19)
(7.2592 -0.0341289 -6.0991e-20)
(7.25702 -0.039261 0)
(7.25475 -0.0450756 0)
(7.25235 -0.0516253 0)
(7.24979 -0.0589649 3.98157e-20)
(7.24705 -0.0671513 4.27898e-20)
(7.2441 -0.0762444 4.60459e-20)
(7.24088 -0.0863064 4.96245e-20)
(7.23738 -0.0974032 -5.35694e-20)
(7.23353 -0.109605 3.23938e-20)
(7.22932 -0.122985 -1.01595e-21)
(7.22468 -0.137623 7.17235e-20)
(7.21957 -0.153605 -4.11461e-20)
(7.21395 -0.171021 3.75428e-20)
(7.20774 -0.189971 -4.57491e-20)
(7.20092 -0.210565 -2.41535e-20)
(7.1934 -0.232922 -8.73951e-20)
(7.18513 -0.257172 2.92807e-20)
(7.17604 -0.283463 -3.52404e-20)
(7.16606 -0.311955 1.52954e-21)
(7.15512 -0.342832 1.27607e-19)
(7.14314 -0.376296 -5.0016e-20)
(7.13002 -0.412578 1.04331e-19)
(7.11569 -0.451942 -8.08966e-20)
(7.10004 -0.494689 3.73532e-20)
(7.08298 -0.54116 -3.70511e-20)
(7.0644 -0.591756 3.91963e-20)
(7.04419 -0.646949 -6.48575e-20)
(7.02223 -0.707259 5.2237e-20)
(6.99842 -0.773384 -2.46896e-20)
(6.97263 -0.84594 0)
(6.94478 -0.926211 7.43086e-20)
(6.91477 -1.0144 8.26361e-20)
(6.88253 -1.11397 9.14517e-20)
(6.84831 -1.22173 2.37507e-20)
(6.8114 -1.35054 -9.789e-20)
(6.77477 -1.47968 -3.2951e-20)
(6.73143 -1.66115 -6.3201e-20)
(6.70302 -1.80148 8.28413e-20)
(6.63973 -2.09464 3.01823e-20)
(6.66871 -2.20349 -5.66562e-20)
(6.5173 -2.73445 -8.21552e-21)
(6.83457 -2.76554 -2.32903e-20)
(6.28759 -3.81182 -1.60884e-20)
(7.34837 -0.0204382 -1.38309e-19)
(7.34988 -0.016918 -1.33268e-19)
(7.34964 -0.0150914 1.59919e-19)
(7.34855 -0.0159331 1.0416e-20)
(7.34746 -0.0158735 -2.10382e-19)
(7.3463 -0.0156808 2.21498e-19)
(7.3448 -0.0156051 2.61136e-19)
(7.34323 -0.0154979 -1.40308e-19)
(7.34151 -0.015332 0)
(7.33971 -0.0151407 1.80784e-19)
(7.3378 -0.0149128 2.01306e-19)
(7.33583 -0.0146502 -1.1177e-19)
(7.33378 -0.014352 -1.2393e-19)
(7.33167 -0.0140216 -1.41252e-19)
(7.3295 -0.0136594 1.47496e-19)
(7.32729 -0.0132681 0)
(7.32503 -0.0128496 1.87713e-19)
(7.32273 -0.0124072 2.05975e-19)
(7.3204 -0.0119438 0)
(7.31803 -0.0114634 -1.20051e-19)
(7.31563 -0.0109703 0)
(7.31321 -0.0104697 -1.45554e-19)
(7.31077 -0.00996745 0)
(7.30832 -0.00947047 3.52204e-19)
(7.30585 -0.00898667 -3.74835e-19)
(7.30337 -0.00852496 -4.12003e-19)
(7.3009 -0.00809571 -2.28964e-19)
(7.29842 -0.00771056 1.21413e-19)
(7.29595 -0.00738261 -1.3434e-19)
(7.29348 -0.00712656 0)
(7.29103 -0.00695897 0)
(7.28859 -0.00689794 -8.6897e-20)
(7.28617 -0.00696348 1.83098e-19)
(7.28377 -0.00717773 9.90564e-20)
(7.28138 -0.00756441 0)
(7.279 -0.00814973 0)
(7.27665 -0.00896155 -1.28138e-19)
(7.2743 -0.01003 1.34971e-19)
(7.27195 -0.0113868 -7.45124e-20)
(7.26961 -0.0130661 3.18938e-19)
(7.26725 -0.0151039 1.72955e-19)
(7.26487 -0.0175379 -1.56752e-22)
(7.26245 -0.020408 -1.00653e-19)
(7.25998 -0.0237555 3.41643e-21)
(7.25744 -0.0276239 1.13177e-19)
(7.25481 -0.0320585 -1.26706e-19)
(7.25206 -0.0371064 6.78693e-20)
(7.24918 -0.0428166 2.54863e-21)
(7.24613 -0.0492403 0)
(7.24289 -0.0564309 -8.69164e-20)
(7.23942 -0.0644441 -9.43154e-20)
(7.23569 -0.0733388 1.0248e-19)
(7.23166 -0.0831763 -5.67243e-20)
(7.2273 -0.0940216 -1.17414e-19)
(7.22255 -0.105944 1.52406e-21)
(7.21738 -0.119017 7.10474e-20)
(7.21174 -0.13332 -7.49501e-20)
(7.20557 -0.148937 -4.26333e-20)
(7.19883 -0.16596 1.37718e-19)
(7.19147 -0.184489 4.58642e-20)
(7.18341 -0.204634 5.4431e-20)
(7.17459 -0.226514 5.81947e-20)
(7.16496 -0.250262 -7.12856e-20)
(7.15444 -0.276025 0)
(7.14294 -0.303966 0)
(7.1304 -0.33427 -1.89058e-19)
(7.11671 -0.367145 -5.84965e-20)
(7.10179 -0.402824 0)
(7.08554 -0.441574 0)
(7.06786 -0.483702 -6.74594e-20)
(7.04861 -0.52956 0)
(7.02769 -0.579561 -1.40884e-19)
(7.00497 -0.634179 4.88132e-20)
(6.98031 -0.693961 5.01613e-21)
(6.95357 -0.759617 -1.59878e-19)
(6.92461 -0.831823 3.41802e-20)
(6.8933 -0.911815 -1.16319e-19)
(6.85954 -1.00004 -1.24214e-19)
(6.82316 -1.0996 -9.04376e-20)
(6.78441 -1.20827 1.14616e-19)
(6.74252 -1.3373 -1.25832e-19)
(6.70024 -1.46946 5.99865e-20)
(6.65125 -1.6509 6.28752e-20)
(6.61492 -1.79888 -1.67102e-19)
(6.54714 -2.09139 1.86841e-20)
(6.5625 -2.21518 2.74406e-20)
(6.41328 -2.74831 8.32723e-21)
(6.69619 -2.78661 8.55835e-20)
(6.20991 -3.87044 2.80838e-20)
(7.34949 -0.0170915 -1.28288e-19)
(7.34992 -0.0151239 -1.37797e-19)
(7.34999 -0.0133849 -1.44755e-19)
(7.34876 -0.0141219 1.79662e-19)
(7.34765 -0.0142167 7.21151e-21)
(7.34642 -0.0140268 0)
(7.34497 -0.0139343 7.76641e-21)
(7.34338 -0.0138138 -1.36305e-19)
(7.3417 -0.0136321 1.51294e-19)
(7.33991 -0.0134129 0)
(7.33803 -0.0131583 1.98185e-19)
(7.33608 -0.0128654 -2.08676e-19)
(7.33406 -0.0125366 -2.43249e-19)
(7.33197 -0.012174 1.24427e-19)
(7.32983 -0.0117799 0)
(7.32764 -0.0113564 0)
(7.32541 -0.0109064 -1.75075e-19)
(7.32313 -0.0104333 -1.94608e-19)
(7.32081 -0.00994058 2.11763e-19)
(7.31845 -0.00943237 4.73528e-19)
(7.31606 -0.00891347 3.66851e-21)
(7.31365 -0.00838923 -2.81714e-19)
(7.3112 -0.00786585 -5.85514e-21)
(7.30874 -0.00735047 -3.67315e-21)
(7.30625 -0.00685112 1.39875e-21)
(7.30375 -0.00637694 2.01021e-19)
(7.30124 -0.00593815 0)
(7.29871 -0.0055464 1.21043e-19)
(7.29618 -0.00521468 -2.59163e-19)
(7.29363 -0.00495755 -1.45098e-19)
(7.29109 -0.00479093 -4.71206e-21)
(7.28854 -0.00473244 -2.40672e-21)
(7.28599 -0.00480159 -1.80091e-19)
(7.28343 -0.0050196 0)
(7.28087 -0.00540937 0)
(7.2783 -0.00599587 -1.16266e-19)
(7.27572 -0.00680586 -2.20965e-21)
(7.27312 -0.00786792 0)
(7.2705 -0.00921261 0)
(7.26784 -0.0108724 -1.55541e-19)
(7.26514 -0.0128816 -8.39493e-20)
(7.26239 -0.0152763 1.85585e-19)
(7.25956 -0.0180944 1.98322e-19)
(7.25665 -0.0213759 -1.02661e-19)
(7.25364 -0.0251621 2.35613e-19)
(7.25049 -0.0294969 -7.78391e-22)
(7.2472 -0.0344255 0)
(7.24373 -0.0399955 -7.20647e-20)
(7.24005 -0.0462565 1.63838e-19)
(7.23614 -0.0532604 1.72936e-19)
(7.23196 -0.0610616 -9.84109e-20)
(7.22748 -0.0697179 -9.98184e-20)
(7.22266 -0.0792894 1.08651e-19)
(7.21745 -0.0898404 0)
(7.21182 -0.101439 -1.38754e-19)
(7.20572 -0.114158 0)
(7.19909 -0.128076 0)
(7.1919 -0.143278 0)
(7.18407 -0.159854 -9.36088e-20)
(7.17556 -0.177905 5.51877e-20)
(7.16629 -0.197539 6.59741e-20)
(7.15621 -0.218877 0)
(7.14523 -0.242052 -8.08253e-21)
(7.13328 -0.267212 5.64606e-21)
(7.12029 -0.294522 0)
(7.10615 -0.324167 4.39875e-20)
(7.09078 -0.356355 4.37177e-20)
(7.07406 -0.391325 -1.31584e-19)
(7.0559 -0.429348 0)
(7.03617 -0.470736 0)
(7.01473 -0.515847 0)
(6.99146 -0.5651 4.25925e-20)
(6.9662 -0.618983 5.37633e-20)
(6.9388 -0.678065 0)
(6.90908 -0.743057 -5.801e-21)
(6.87688 -0.81469 2.40049e-19)
(6.84202 -0.894173 3.74943e-20)
(6.80437 -0.982151 9.75709e-20)
(6.76368 -1.08145 -1.96043e-19)
(6.72018 -1.19069 1.32552e-20)
(6.67299 -1.31965 1.61242e-20)
(6.62476 -1.45442 -3.7017e-20)
(6.56943 -1.6355 3.93276e-20)
(6.52494 -1.79088 1.73807e-19)
(6.45111 -2.08217 0)
(6.4529 -2.22107 1.12021e-19)
(6.30415 -2.75752 6.63373e-20)
(6.54995 -2.80351 -6.42872e-20)
(6.13539 -3.92946 -9.3575e-21)
(7.34984 -0.0142759 2.41188e-19)
(7.35003 -0.0133568 0)
(7.35015 -0.0117396 1.40667e-19)
(7.34898 -0.0123834 3.41448e-19)
(7.3478 -0.0125763 -1.77199e-19)
(7.34657 -0.0124134 -2.0765e-19)
(7.34514 -0.012301 4.87928e-19)
(7.34356 -0.0121683 -5.31366e-19)
(7.34189 -0.0119685 0)
(7.34013 -0.0117231 1.71978e-19)
(7.33828 -0.0114392 -1.81083e-19)
(7.33635 -0.0111154 0)
(7.33435 -0.0107536 0)
(7.3323 -0.0103571 0)
(7.33018 -0.00992819 2.77089e-19)
(7.32802 -0.00946987 0)
(7.3258 -0.00898525 1.70191e-19)
(7.32354 -0.0084779 -1.90524e-19)
(7.32123 -0.00795169 -5.22585e-21)
(7.31889 -0.00741104 -2.23678e-19)
(7.31651 -0.006861 -2.54498e-19)
(7.31409 -0.00630717 5.37088e-19)
(7.31164 -0.0057559 0)
(7.30917 -0.0052144 3.22601e-19)
(7.30666 -0.00469088 3.54213e-19)
(7.30413 -0.00419445 -4.35063e-21)
(7.30158 -0.00373535 2.07578e-19)
(7.299 -0.00332507 0)
(7.2964 -0.00297641 0)
(7.29378 -0.00270352 2.75791e-19)
(7.29114 -0.0025219 -1.43739e-19)
(7.28848 -0.00244884 -1.59208e-19)
(7.2858 -0.00250284 1.75826e-19)
(7.28309 -0.00270451 1.91152e-19)
(7.28036 -0.00307589 -2.10428e-19)
(7.2776 -0.00364084 3.35854e-19)
(7.2748 -0.00442489 1.10792e-21)
(7.27195 -0.00545546 0)
(7.26906 -0.00676159 -1.44451e-19)
(7.2661 -0.00837443 0)
(7.26307 -0.0103266 1.70278e-19)
(7.25996 -0.0126526 -3.65706e-19)
(7.25674 -0.0153888 -1.00711e-19)
(7.2534 -0.0185735 7.09688e-23)
(7.24992 -0.0222461 -2.33673e-19)
(7.24628 -0.0264493 2.54113e-19)
(7.24246 -0.0312263 4.30489e-21)
(7.23842 -0.0366234 -1.47903e-19)
(7.23413 -0.0426884 9.05236e-20)
(7.22958 -0.049472 -8.77363e-20)
(7.22471 -0.0570274 9.47723e-20)
(7.2195 -0.0654106 7.85204e-22)
(7.21391 -0.0746811 -4.36761e-21)
(7.20789 -0.0849015 1.25291e-19)
(7.2014 -0.0961399 1.35531e-19)
(7.19439 -0.108467 -7.87059e-20)
(7.1868 -0.121961 -3.6424e-21)
(7.1786 -0.136707 -4.14762e-21)
(7.1697 -0.152793 2.08118e-19)
(7.16006 -0.17032 -5.85738e-20)
(7.14961 -0.189398 6.83039e-21)
(7.13827 -0.210145 2.14708e-19)
(7.12597 -0.232695 1.49705e-19)
(7.11262 -0.257195 -2.64252e-19)
(7.09814 -0.283811 -9.96381e-20)
(7.08242 -0.312731 1.05423e-19)
(7.06537 -0.344165 1.15484e-19)
(7.04686 -0.378351 -1.19821e-20)
(7.02679 -0.415564 0)
(7.005 -0.456121 -8.74302e-20)
(6.98136 -0.500383 1.41709e-19)
(6.95571 -0.54878 -5.20135e-20)
(6.92789 -0.601806 0)
(6.8977 -0.660044 -6.9494e-20)
(6.86494 -0.724221 7.37828e-20)
(6.82942 -0.795113 -1.61932e-19)
(6.79091 -0.873906 -2.00757e-19)
(6.74923 -0.961414 2.25456e-19)
(6.70407 -1.06025 2.40083e-19)
(6.6556 -1.16972 1.43695e-20)
(6.60284 -1.29843 1.40501e-19)
(6.54832 -1.43533 4.16634e-20)
(6.48611 -1.61594 -2.33993e-19)
(6.43311 -1.7781 -9.25433e-20)
(6.35198 -2.06803 0)
(6.34003 -2.22198 -1.01919e-19)
(6.18952 -2.763 -8.7399e-20)
(6.39256 -2.81811 1.16544e-19)
(6.02868 -3.98108 0)
(7.35015 -0.0119228 0)
(7.35007 -0.0116703 0)
(7.35026 -0.0101993 0)
(7.34915 -0.010739 -1.62905e-19)
(7.34794 -0.0109888 -1.92023e-19)
(7.34672 -0.0108502 2.02187e-19)
(7.34531 -0.010718 -1.27026e-21)
(7.34375 -0.0105671 -2.59755e-19)
(7.3421 -0.0103469 -2.89361e-19)
(7.34036 -0.0100735 0)
(7.33854 -0.00975809 -3.56962e-19)
(7.33664 -0.00940074 0)
(7.33467 -0.00900376 2.18871e-19)
(7.33264 -0.00857052 0)
(7.33055 -0.00810419 -2.7024e-19)
(7.32841 -0.0076079 3.0341e-19)
(7.32621 -0.00708518 4.91806e-21)
(7.32397 -0.00653974 0)
(7.32168 -0.00597579 1.96336e-19)
(7.31935 -0.00539796 -2.1924e-19)
(7.31697 -0.00481138 -5.92433e-21)
(7.31455 -0.00422186 -2.59742e-19)
(7.3121 -0.00363586 2.84687e-19)
(7.30961 -0.00306064 -6.26547e-19)
(7.30708 -0.00250448 -1.72125e-19)
(7.30452 -0.00197633 2.90151e-21)
(7.30193 -0.0014865 -2.01176e-19)
(7.2993 -0.00104612 0)
(7.29663 -0.00066778 2.48293e-19)
(7.29394 -0.00036509 -2.56292e-19)
(7.2912 -0.000153492 -1.40084e-19)
(7.28843 -4.91664e-05 3.15552e-19)
(7.28562 -7.04483e-05 -3.46378e-19)
(7.28277 -0.000236947 -1.92704e-19)
(7.27987 -0.00056972 -6.49097e-21)
(7.27692 -0.00109161 4.39753e-19)
(7.2739 -0.00182716 0)
(7.27082 -0.00280242 0)
(7.26766 -0.00404528 -3.31551e-21)
(7.26442 -0.00558532 -3.48579e-21)
(7.26107 -0.00745371 -1.66428e-19)
(7.2576 -0.0096835 -5.02867e-21)
(7.25401 -0.0123094 -1.06404e-19)
(7.25025 -0.0153682 2.15732e-19)
(7.24633 -0.0188978 1.16029e-19)
(7.24221 -0.0229391 0)
(7.23787 -0.0275337 0)
(7.23328 -0.0327265 1.55792e-19)
(7.22841 -0.0385638 -3.27895e-19)
(7.22323 -0.0450948 0)
(7.2177 -0.0523714 -3.06957e-19)
(7.21178 -0.060448 -1.1128e-19)
(7.20544 -0.0693832 1.18258e-19)
(7.19863 -0.0792382 0)
(7.1913 -0.0900803 1.50011e-19)
(7.18341 -0.101979 -8.23255e-20)
(7.17489 -0.115012 1.77895e-19)
(7.1657 -0.129261 -2.98688e-19)
(7.15577 -0.144817 7.24039e-21)
(7.14503 -0.161778 0)
(7.13341 -0.180254 -1.29159e-19)
(7.12084 -0.200362 -1.4353e-19)
(7.10723 -0.222236 8.52897e-20)
(7.0925 -0.246023 -7.38657e-21)
(7.07655 -0.271891 1.00701e-19)
(7.05927 -0.300025 -2.38806e-19)
(7.04055 -0.330637 5.93414e-20)
(7.02026 -0.36397 1.33666e-19)
(6.99828 -0.400297 -7.90959e-20)
(6.97444 -0.439937 0)
(6.9486 -0.483262 2.13389e-19)
(6.92056 -0.530702 2.4011e-19)
(6.89014 -0.582764 0)
(6.85713 -0.640047 -7.5307e-20)
(6.82129 -0.703282 -6.76671e-21)
(6.78238 -0.773285 -2.83525e-19)
(6.74013 -0.851238 1.45446e-19)
(6.6943 -0.938092 1.39012e-19)
(6.64449 -1.0363 -5.33442e-19)
(6.59083 -1.14576 -6.85664e-20)
(6.53221 -1.2741 -4.22192e-20)
(6.47099 -1.41275 -1.95053e-19)
(6.4014 -1.59295 1.87834e-19)
(6.33923 -1.76131 -2.08198e-19)
(6.24973 -2.05036 2.89552e-20)
(6.22323 -2.21889 0)
(6.06845 -2.76491 0)
(6.24143 -2.83931 3.11814e-20)
(5.87227 -4.00863 -8.85145e-21)
(7.35041 -0.00993529 0)
(7.35011 -0.0101146 0)
(7.35034 -0.00878089 0)
(7.3493 -0.00920667 1.33512e-20)
(7.34808 -0.00947306 -1.7437e-19)
(7.34687 -0.0093491 4.06836e-19)
(7.34549 -0.00919303 -4.47866e-19)
(7.34396 -0.00901728 7.6684e-19)
(7.34233 -0.00877184 8.61037e-21)
(7.34062 -0.00846752 0)
(7.33882 -0.00811742 3.49218e-19)
(7.33695 -0.0077236 1.97433e-19)
(7.33501 -0.00728838 -4.22065e-19)
(7.33301 -0.00681549 0)
(7.33094 -0.00630847 2.66002e-19)
(7.32882 -0.00577086 -2.80133e-19)
(7.32665 -0.00520631 5.38283e-21)
(7.32442 -0.00461878 -3.40025e-19)
(7.32215 -0.00401258 3.11328e-21)
(7.31982 -0.00339254 5.47164e-21)
(7.31746 -0.00276386 -6.41249e-21)
(7.31504 -0.00213249 5.02143e-19)
(7.31258 -0.00150489 -3.02455e-21)
(7.31008 -0.000888384 6.07339e-19)
(7.30753 -0.000291076 0)
(7.30494 0.000278133 0)
(7.3023 0.000809116 0)
(7.29962 0.00129098 0)
(7.29689 0.00171153 -4.7903e-19)
(7.29412 0.00205746 5.14925e-19)
(7.29129 0.00231396 5.71101e-19)
(7.28841 0.00246523 -1.49614e-19)
(7.28548 0.00249373 -3.39943e-19)
(7.28248 0.00238079 1.80669e-19)
(7.27942 0.00210609 0)
(7.27628 0.00164781 -6.58235e-19)
(7.27306 0.000982517 -2.46602e-19)
(7.26975 8.53428e-05 -5.36686e-21)
(7.26634 -0.00107033 0)
(7.26281 -0.00251264 -2.25806e-21)
(7.25915 -0.00427147 0)
(7.25535 -0.00637841 -1.86253e-19)
(7.25139 -0.00886655 3.93675e-19)
(7.24724 -0.0117711 -2.15124e-19)
(7.24289 -0.0151287 -1.2126e-19)
(7.23831 -0.0189782 -4.7292e-21)
(7.23347 -0.0233601 1.39839e-19)
(7.22835 -0.0283177 0)
(7.22292 -0.0338955 -1.73941e-19)
(7.21713 -0.0401413 0)
(7.21096 -0.047106 4.11442e-19)
(7.20437 -0.0548421 -1.15705e-19)
(7.1973 -0.063407 1.22131e-19)
(7.18973 -0.0728602 1.4062e-19)
(7.18159 -0.0832687 -2.963e-19)
(7.17284 -0.0946999 -1.64051e-19)
(7.16342 -0.10723 0)
(7.15326 -0.120942 1.99574e-19)
(7.14232 -0.135923 -1.10656e-19)
(7.1305 -0.152271 0)
(7.11775 -0.170094 -1.45582e-19)
(7.10398 -0.189511 0)
(7.08909 -0.210653 0)
(7.073 -0.233668 -1.00954e-19)
(7.0556 -0.258721 2.19864e-19)
(7.03678 -0.285999 1.25449e-19)
(7.01642 -0.315713 7.85635e-21)
(6.99437 -0.348106 -1.46988e-21)
(6.97049 -0.383455 0)
(6.94462 -0.422082 0)
(6.91657 -0.464355 -3.26175e-19)
(6.88616 -0.510716 -2.30994e-19)
(6.85314 -0.561677 -4.25622e-19)
(6.81729 -0.617847 -8.1289e-20)
(6.77834 -0.679965 2.57267e-19)
(6.73599 -0.748881 1.92695e-19)
(6.68993 -0.825775 5.84048e-20)
(6.63984 -0.911713 -3.07326e-19)
(6.58527 -1.00902 2.75938e-19)
(6.52621 -1.11811 0)
(6.46148 -1.24578 -1.90174e-19)
(6.39318 -1.38562 2.98039e-19)
(6.3157 -1.56515 -1.10588e-19)
(6.24368 -1.73896 2.37479e-19)
(6.14468 -2.02677 0)
(6.10263 -2.20973 0)
(5.94112 -2.75811 1.63212e-20)
(6.08154 -2.8494 6.06902e-21)
(5.73853 -4.04627 -2.5667e-21)
(7.35068 -0.00825033 0)
(7.35017 -0.00869028 0)
(7.35042 -0.00748282 -2.75623e-19)
(7.34945 -0.00779033 6.39905e-19)
(7.34823 -0.00804045 -7.0049e-19)
(7.34703 -0.00791742 -3.95974e-19)
(7.34568 -0.00773204 -2.2767e-19)
(7.34417 -0.0075238 2.45775e-19)
(7.34258 -0.00724733 1.46079e-20)
(7.34089 -0.00690793 -6.08476e-19)
(7.33913 -0.00651947 -5.86752e-21)
(7.33728 -0.0060856 -3.70242e-19)
(7.33537 -0.00560879 -1.97951e-19)
(7.3334 -0.00509288 3.45389e-21)
(7.33136 -0.0045418 8.00151e-21)
(7.32926 -0.00395919 -5.5502e-19)
(7.32711 -0.00334889 6.0208e-19)
(7.3249 -0.00271504 1.02225e-20)
(7.32264 -0.00206203 -1.73164e-19)
(7.32033 -0.00139468 -6.03031e-19)
(7.31797 -0.000718339 -2.24789e-19)
(7.31555 -3.89359e-05 -2.43651e-19)
(7.31309 0.000637109 -2.7062e-19)
(7.31057 0.0013025 4.58018e-21)
(7.308 0.00194935 -9.68928e-19)
(7.30538 0.00256879 5.2834e-19)
(7.3027 0.00315108 -3.83376e-19)
(7.29997 0.00368555 -5.02026e-21)
(7.29718 0.00416036 -7.24547e-21)
(7.29434 0.00456266 5.07864e-19)
(7.29142 0.00487819 -5.50248e-19)
(7.28844 0.00509172 -3.03251e-19)
(7.28538 0.00518648 6.65088e-19)
(7.28225 0.0051446 -1.77702e-19)
(7.27903 0.00494652 -3.98849e-19)
(7.27571 0.00457156 4.26998e-19)
(7.2723 0.00399732 2.34582e-19)
(7.26877 0.00320009 2.55929e-19)
(7.26511 0.0021545 -2.82369e-19)
(7.26131 0.000833737 1.52384e-19)
(7.25736 -0.0007908 0)
(7.25323 -0.00274918 1.98606e-21)
(7.24892 -0.00507299 -1.97097e-19)
(7.24439 -0.007796 2.21959e-19)
(7.23963 -0.0109533 1.22683e-19)
(7.2346 -0.0145822 -2.63911e-19)
(7.22929 -0.0187217 1.41898e-19)
(7.22366 -0.0234133 1.62158e-19)
(7.21768 -0.0287002 -1.78037e-19)
(7.21132 -0.0346289 1.8815e-19)
(7.20453 -0.041248 -4.2252e-19)
(7.19728 -0.0486094 1.19275e-19)
(7.18952 -0.0567685 -1.25934e-19)
(7.18121 -0.0657838 -1.45673e-19)
(7.17229 -0.0757201 4.68644e-19)
(7.16271 -0.0866439 -3.48895e-19)
(7.15241 -0.0986305 -9.92305e-20)
(7.14133 -0.11176 -1.15442e-19)
(7.12939 -0.126119 1.2272e-19)
(7.11654 -0.141805 -5.39766e-19)
(7.10268 -0.158925 2.88602e-19)
(7.08773 -0.177594 -1.70359e-19)
(7.0716 -0.197943 2.75532e-19)
(7.05418 -0.22012 3.14089e-19)
(7.03537 -0.244288 0)
(7.01504 -0.270632 0)
(6.99305 -0.299364 1.50636e-19)
(6.96927 -0.330727 -1.59771e-19)
(6.94353 -0.364995 1.90766e-19)
(6.91564 -0.402491 0)
(6.88541 -0.443589 -1.57527e-20)
(6.85262 -0.488729 -2.73792e-19)
(6.81702 -0.538426 -9.78422e-20)
(6.77834 -0.5933 8.21641e-20)
(6.73626 -0.654097 0)
(6.69046 -0.721694 3.35841e-19)
(6.64053 -0.797264 -1.19057e-19)
(6.58613 -0.88197 7.14581e-20)
(6.52668 -0.978043 -1.57054e-19)
(6.46207 -1.0863 8.62785e-20)
(6.39103 -1.21289 1.91268e-19)
(6.31531 -1.35326 0)
(6.22952 -1.53161 0)
(6.14704 -1.70998 2.92936e-19)
(6.03754 -1.99569 -3.11143e-19)
(5.97893 -2.19281 0)
(5.80778 -2.74055 0)
(5.91729 -2.85855 -1.572e-19)
(5.61099 -4.08758 -7.13541e-20)
(7.35097 -0.00681558 2.31791e-19)
(7.35027 -0.00739445 -2.83179e-21)
(7.3505 -0.00629972 -2.80889e-19)
(7.34959 -0.0064892 0)
(7.34839 -0.00669616 -3.59859e-19)
(7.3472 -0.00655947 7.68587e-19)
(7.34588 -0.00633841 -4.29587e-19)
(7.34441 -0.00609026 8.11091e-21)
(7.34284 -0.00577629 -2.59783e-19)
(7.34118 -0.0053971 0)
(7.33945 -0.00496614 3.29218e-19)
(7.33764 -0.00448828 3.6436e-19)
(7.33576 -0.00396621 -1.98839e-19)
(7.33381 -0.00340373 2.05155e-19)
(7.3318 -0.00280491 4.83887e-19)
(7.32973 -0.00217349 -5.41677e-19)
(7.3276 -0.00151342 2.85145e-19)
(7.32541 -0.000828921 3.28532e-19)
(7.32317 -0.000124363 0)
(7.32087 0.00059533 7.89119e-19)
(7.31851 0.00132495 -4.36987e-19)
(7.3161 0.00205852 7.09963e-19)
(7.31363 0.00278986 0)
(7.3111 0.00351167 -2.93226e-19)
(7.30851 0.00421623 3.03966e-19)
(7.30587 0.00489502 3.38747e-19)
(7.30315 0.00553845 1.90047e-19)
(7.30037 0.00613635 -2.08078e-19)
(7.29753 0.006677 2.27767e-19)
(7.2946 0.00714831 0)
(7.29161 0.00753658 2.71396e-19)
(7.28852 0.00782705 -6.4367e-21)
(7.28535 0.00800362 1.53425e-19)
(7.28209 0.00804948 -6.69304e-21)
(7.27871 0.00794596 5.85197e-19)
(7.27523 0.00767307 8.00141e-21)
(7.27162 0.0072097 8.77191e-21)
(7.26788 0.00653323 -5.07436e-19)
(7.26399 0.00561948 2.78291e-19)
(7.25993 0.00444291 -1.56258e-19)
(7.2557 0.00297627 -6.46166e-21)
(7.25126 0.00119103 3.62862e-19)
(7.24661 -0.000943302 -2.05853e-19)
(7.24172 -0.00345861 -2.25196e-19)
(7.23656 -0.00638881 -2.58986e-21)
(7.23112 -0.00976943 6.68269e-19)
(7.22535 -0.013638 -2.93924e-19)
(7.21924 -0.0180343 1.5831e-19)
(7.21274 -0.0230005 0)
(7.20581 -0.0285808 -1.99434e-19)
(7.19843 -0.0348226 4.33029e-19)
(7.19055 -0.0417761 1.22656e-19)
(7.18212 -0.0494952 -2.637e-19)
(7.1731 -0.0580368 -1.43394e-19)
(7.16342 -0.067464 0)
(7.15304 -0.0778421 1.76416e-19)
(7.14189 -0.0892445 9.36517e-22)
(7.12991 -0.10175 -9.99444e-23)
(7.11703 -0.115443 0)
(7.10316 -0.130419 5.54732e-19)
(7.08822 -0.146783 0)
(7.07213 -0.16465 1.77753e-19)
(7.05478 -0.184149 -1.88597e-19)
(7.03607 -0.205424 -2.11237e-19)
(7.01587 -0.228638 -1.24836e-19)
(6.99406 -0.253974 -1.33225e-19)
(6.97049 -0.281643 0)
(6.945 -0.311884 0)
(6.91742 -0.344973 -1.89353e-19)
(6.88754 -0.381229 -1.13671e-19)
(6.85515 -0.421029 1.05652e-19)
(6.82001 -0.464808 2.72166e-19)
(6.78184 -0.513091 4.7189e-19)
(6.74032 -0.566494 -1.74784e-19)
(6.69511 -0.625776 2.10395e-19)
(6.64584 -0.691823 1.52512e-20)
(6.59203 -0.765812 2.70962e-19)
(6.53325 -0.848981 0)
(6.46885 -0.943483 0)
(6.39855 -1.05049 -3.96652e-19)
(6.32102 -1.17558 1.114e-19)
(6.23764 -1.31583 7.25479e-20)
(6.14316 -1.49252 6.69718e-20)
(6.0497 -1.67454 -2.17384e-19)
(5.92887 -1.95753 -1.14796e-19)
(5.85289 -2.16804 3.46654e-19)
(5.66968 -2.71364 -2.94509e-19)
(5.74531 -2.86394 -2.34318e-20)
(5.44211 -4.11236 -2.87035e-20)
(7.35127 -0.00559176 1.7332e-19)
(7.3504 -0.00621964 0)
(7.35059 -0.00522257 2.70543e-19)
(7.34975 -0.00529748 0)
(7.34856 -0.00544115 3.53159e-19)
(7.34738 -0.00527684 -3.71879e-19)
(7.34609 -0.00501364 2.07104e-19)
(7.34466 -0.00471867 4.71739e-19)
(7.34312 -0.00436072 -5.19657e-19)
(7.3415 -0.00393675 -1.42996e-20)
(7.3398 -0.00345895 3.10508e-19)
(7.33802 -0.0029331 0)
(7.33617 -0.00236192 3.91538e-19)
(7.33425 -0.00174909 -4.32366e-19)
(7.33227 -0.00109873 -4.76746e-19)
(7.33023 -0.00041469 2.51156e-19)
(7.32812 0.000299226 -8.54888e-21)
(7.32596 0.00103873 0)
(7.32373 0.00179952 -3.45594e-19)
(7.32144 0.00257673 -7.66968e-19)
(7.3191 0.00336512 2.12526e-19)
(7.31669 0.00415899 -4.63621e-19)
(7.31422 0.0049522 -2.52855e-19)
(7.31168 0.00573769 0)
(7.30907 0.00650808 3.05173e-19)
(7.3064 0.00725486 3.351e-19)
(7.30365 0.007969 0)
(7.30083 0.00864048 0)
(7.29792 0.00925835 0)
(7.29494 0.00981073 6.01786e-21)
(7.29186 0.0102847 -2.57522e-19)
(7.28868 0.010666 -5.8128e-19)
(7.2854 0.0109394 -3.21577e-19)
(7.28201 0.0110888 3.51806e-19)
(7.27849 0.0110964 -1.92981e-19)
(7.27485 0.0109435 -2.11728e-19)
(7.27106 0.0106096 2.36762e-19)
(7.26711 0.0100735 8.51964e-21)
(7.263 0.00931197 -2.73768e-19)
(7.2587 0.00830084 -4.63954e-19)
(7.25419 0.0070142 1.64867e-19)
(7.24947 0.00542483 0)
(7.24449 0.00350364 -2.07374e-19)
(7.23926 0.00122033 2.14667e-19)
(7.23373 -0.00145769 -2.4294e-19)
(7.22787 -0.00456417 -2.67268e-19)
(7.22167 -0.00813544 -3.01536e-19)
(7.21509 -0.0122095 0)
(7.2081 -0.0168269 -1.83998e-19)
(7.20064 -0.0220303 1.97473e-19)
(7.1927 -0.0278656 7.13148e-21)
(7.18421 -0.0343813 0)
(7.17514 -0.0416294 1.27656e-19)
(7.16543 -0.0496654 3.02918e-19)
(7.15503 -0.0585509 -3.36567e-19)
(7.14388 -0.0683487 1.82365e-19)
(7.13191 -0.0791303 4.17394e-19)
(7.11906 -0.0909738 -4.62916e-19)
(7.10525 -0.103962 0)
(7.0904 -0.118187 -2.82318e-19)
(7.07442 -0.133753 -3.30706e-19)
(7.05722 -0.150772 -1.76579e-19)
(7.03869 -0.169371 -2.09111e-19)
(7.01871 -0.189692 1.04219e-19)
(6.99717 -0.211896 3.73567e-19)
(6.9739 -0.236165 -1.48382e-19)
(6.94878 -0.262704 4.89529e-19)
(6.92161 -0.291751 -1.88377e-19)
(6.89222 -0.323581 3.06378e-19)
(6.86038 -0.358514 1.25771e-19)
(6.82586 -0.396919 2.55506e-19)
(6.78839 -0.439236 0)
(6.74766 -0.485985 1.74225e-19)
(6.70333 -0.537785 -8.68291e-20)
(6.655 -0.5954 -4.28049e-19)
(6.60223 -0.659728 7.0726e-21)
(6.54451 -0.731948 -2.80401e-19)
(6.4813 -0.813353 7.24726e-20)
(6.41187 -0.906046 1.81809e-19)
(6.33575 -1.01148 7.25149e-19)
(6.25153 -1.13479 -1.20852e-19)
(6.16017 -1.27443 -6.78557e-19)
(6.05659 -1.44925 -3.10829e-19)
(5.95145 -1.63406 3.52166e-19)
(5.81839 -1.9144 7.33805e-19)
(5.72354 -2.13707 -3.95761e-19)
(5.52646 -2.68146 3.93486e-19)
(5.56754 -2.85775 -2.70329e-20)
(5.23721 -4.11819 2.306e-19)
(7.35158 -0.00454802 3.53221e-19)
(7.35058 -0.0051578 2.68095e-19)
(7.35071 -0.0042423 2.71146e-19)
(7.34991 -0.00420806 0)
(7.34875 -0.00427378 0)
(7.34759 -0.00406927 0)
(7.34633 -0.00375771 4.23869e-19)
(7.34492 -0.00340983 -2.16236e-19)
(7.34342 -0.00300174 2.50899e-19)
(7.34183 -0.00252804 -2.87034e-19)
(7.34017 -0.00199916 3.02285e-19)
(7.33842 -0.00142121 3.50433e-19)
(7.33661 -0.000797067 -3.69062e-19)
(7.33472 -0.000130202 0)
(7.33277 0.000575436 2.24134e-19)
(7.33076 0.00131603 -2.96453e-21)
(7.32868 0.00208784 -2.76693e-19)
(7.32654 0.00288667 -3.04915e-19)
(7.32433 0.00370826 3.42118e-19)
(7.32206 0.00454796 6.69722e-21)
(7.31973 0.00540062 2.10106e-19)
(7.31732 0.00626074 6.42953e-21)
(7.31485 0.00712222 2.50368e-19)
(7.31231 0.00797855 -2.70987e-19)
(7.30969 0.00882236 -6.09001e-19)
(7.30699 0.00964559 3.1892e-19)
(7.30421 0.0104396 3.70165e-19)
(7.30135 0.0111947 -5.82286e-19)
(7.29839 0.0119004 -2.14155e-19)
(7.29534 0.0125455 2.40721e-19)
(7.29219 0.0131174 -2.62251e-19)
(7.28892 0.0136028 7.13305e-21)
(7.28554 0.0139875 -3.1115e-19)
(7.28203 0.0142556 -6.96405e-19)
(7.27838 0.0143904 1.91235e-19)
(7.27458 0.0143743 -4.74274e-21)
(7.27062 0.0141877 -9.52417e-21)
(7.26649 0.0138105 7.55356e-19)
(7.26216 0.0132208 2.84835e-19)
(7.25763 0.0123955 1.61313e-19)
(7.25287 0.0113101 -1.65192e-19)
(7.24787 0.0099387 0)
(7.24259 0.00825359 2.09086e-19)
(7.23703 0.0062258 2.74165e-21)
(7.23114 0.0038245 2.50478e-19)
(7.22491 0.0010172 2.80765e-19)
(7.21829 -0.00223073 -3.02864e-19)
(7.21127 -0.00595585 0)
(7.2038 -0.0101967 -7.1349e-21)
(7.19584 -0.0149948 -9.88123e-21)
(7.18735 -0.0203939 -2.351e-19)
(7.17829 -0.0264413 5.05471e-19)
(7.1686 -0.0331865 1.0899e-20)
(7.15824 -0.0406842 -3.16606e-19)
(7.14715 -0.0489929 -1.74408e-19)